<?xml version="1.0" encoding="ISO-8859-1"?>
<modeling>
 <generator>
  <i name="program" type="string">vasp </i>
  <i name="version" type="string">5.3.3  </i>
  <i name="subversion" type="string">18Dez12 (build Dec 08 2018 16:16:50) complex                          serial </i>
  <i name="platform" type="string">LinuxIFC </i>
  <i name="date" type="string">2018 12 10 </i>
  <i name="time" type="string">16:44:24 </i>
 </generator>
 <incar>
  <i type="string" name="SYSTEM"> Germanium Diamond w/ SOC</i>
  <i type="int" name="ISTART">     1</i>
  <i type="string" name="PREC">accurate         ! precision</i>
  <i type="string" name="ALGO"> Fast             ! blocked Davidson fol</i>
  <i type="logical" name="LSORBIT"> T  </i>
  <i type="logical" name="LNONCOLLINEAR"> T  </i>
  <v name="SAXIS">      0.00000000      0.00000000      1.00000000</v>
  <i type="int" name="ISPIN">     1</i>
  <i type="int" name="ICHARG">    11</i>
  <i type="int" name="IBRION">    -1</i>
  <i name="EDIFF">      0.00001000</i>
  <i type="int" name="NSW">     0</i>
  <i type="int" name="ISYM">     2</i>
  <i name="ENCUT">    320.00000000</i>
  <i name="ENAUG">    640.00000000</i>
  <i type="int" name="NBANDS">    24</i>
  <v name="MAGMOM">      0.00000000      0.00000000      0.00000000      0.00000000      0.00000000      0.00000000</v>
  <i type="int" name="ISMEAR">     0</i>
  <i name="SIGMA">      0.10000000</i>
  <i type="string" name="GGA"> PS                  ! PBESol w/ potpaw_</i>
 </incar>
 <kpoints>
  <varray name="kpointlist" >
   <v>       0.50000000       0.50000000       0.50000000 </v>
   <v>       0.47619000       0.47619000       0.47619000 </v>
   <v>       0.45238100       0.45238100       0.45238100 </v>
   <v>       0.42857100       0.42857100       0.42857100 </v>
   <v>       0.40476200       0.40476200       0.40476200 </v>
   <v>       0.38095200       0.38095200       0.38095200 </v>
   <v>       0.35714300       0.35714300       0.35714300 </v>
   <v>       0.33333300       0.33333300       0.33333300 </v>
   <v>       0.30952400       0.30952400       0.30952400 </v>
   <v>       0.28571400       0.28571400       0.28571400 </v>
   <v>       0.26190500       0.26190500       0.26190500 </v>
   <v>       0.23809500       0.23809500       0.23809500 </v>
   <v>       0.21428600       0.21428600       0.21428600 </v>
   <v>       0.19047600       0.19047600       0.19047600 </v>
   <v>       0.16666700       0.16666700       0.16666700 </v>
   <v>       0.14285700       0.14285700       0.14285700 </v>
   <v>       0.11904800       0.11904800       0.11904800 </v>
   <v>       0.09523800       0.09523800       0.09523800 </v>
   <v>       0.07142900       0.07142900       0.07142900 </v>
   <v>       0.04761900       0.04761900       0.04761900 </v>
   <v>       0.02381000       0.02381000       0.02381000 </v>
   <v>       0.00000000       0.00000000       0.00000000 </v>
   <v>       0.02083300       0.00000000       0.02083300 </v>
   <v>       0.04166700       0.00000000       0.04166700 </v>
   <v>       0.06250000       0.00000000       0.06250000 </v>
   <v>       0.08333300       0.00000000       0.08333300 </v>
   <v>       0.10416700       0.00000000       0.10416700 </v>
   <v>       0.12500000       0.00000000       0.12500000 </v>
   <v>       0.14583300       0.00000000       0.14583300 </v>
   <v>       0.16666700       0.00000000       0.16666700 </v>
   <v>       0.18750000       0.00000000       0.18750000 </v>
   <v>       0.20833300       0.00000000       0.20833300 </v>
   <v>       0.22916700       0.00000000       0.22916700 </v>
   <v>       0.25000000       0.00000000       0.25000000 </v>
   <v>       0.27083300       0.00000000       0.27083300 </v>
   <v>       0.29166700       0.00000000       0.29166700 </v>
   <v>       0.31250000       0.00000000       0.31250000 </v>
   <v>       0.33333300       0.00000000       0.33333300 </v>
   <v>       0.35416700       0.00000000       0.35416700 </v>
   <v>       0.37500000       0.00000000       0.37500000 </v>
   <v>       0.39583300       0.00000000       0.39583300 </v>
   <v>       0.41666700       0.00000000       0.41666700 </v>
   <v>       0.43750000       0.00000000       0.43750000 </v>
   <v>       0.45833300       0.00000000       0.45833300 </v>
   <v>       0.47916700       0.00000000       0.47916700 </v>
   <v>       0.50000000       0.00000000       0.50000000 </v>
   <v>       0.51562500       0.03125000       0.51562500 </v>
   <v>       0.53125000       0.06250000       0.53125000 </v>
   <v>       0.54687500       0.09375000       0.54687500 </v>
   <v>       0.56250000       0.12500000       0.56250000 </v>
   <v>       0.57812500       0.15625000       0.57812500 </v>
   <v>       0.59375000       0.18750000       0.59375000 </v>
   <v>       0.60937500       0.21875000       0.60937500 </v>
   <v>       0.62500000       0.25000000       0.62500000 </v>
   <v>       0.37500000       0.37500000       0.75000000 </v>
   <v>       0.36111100       0.36111100       0.72222200 </v>
   <v>       0.34722200       0.34722200       0.69444400 </v>
   <v>       0.33333300       0.33333300       0.66666700 </v>
   <v>       0.31944400       0.31944400       0.63888900 </v>
   <v>       0.30555600       0.30555600       0.61111100 </v>
   <v>       0.29166700       0.29166700       0.58333300 </v>
   <v>       0.27777800       0.27777800       0.55555600 </v>
   <v>       0.26388900       0.26388900       0.52777800 </v>
   <v>       0.25000000       0.25000000       0.50000000 </v>
   <v>       0.23611100       0.23611100       0.47222200 </v>
   <v>       0.22222200       0.22222200       0.44444400 </v>
   <v>       0.20833300       0.20833300       0.41666700 </v>
   <v>       0.19444400       0.19444400       0.38888900 </v>
   <v>       0.18055600       0.18055600       0.36111100 </v>
   <v>       0.16666700       0.16666700       0.33333300 </v>
   <v>       0.15277800       0.15277800       0.30555600 </v>
   <v>       0.13888900       0.13888900       0.27777800 </v>
   <v>       0.12500000       0.12500000       0.25000000 </v>
   <v>       0.11111100       0.11111100       0.22222200 </v>
   <v>       0.09722200       0.09722200       0.19444400 </v>
   <v>       0.08333300       0.08333300       0.16666700 </v>
   <v>       0.06944400       0.06944400       0.13888900 </v>
   <v>       0.05555600       0.05555600       0.11111100 </v>
   <v>       0.04166700       0.04166700       0.08333300 </v>
   <v>       0.02777800       0.02777800       0.05555600 </v>
   <v>       0.01388900       0.01388900       0.02777800 </v>
   <v>       0.00000000       0.00000000       0.00000000 </v>
  </varray>
  <varray name="weights" >
   <v>       0.01219512 </v>
   <v>       0.01219512 </v>
   <v>       0.01219512 </v>
   <v>       0.01219512 </v>
   <v>       0.01219512 </v>
   <v>       0.01219512 </v>
   <v>       0.01219512 </v>
   <v>       0.01219512 </v>
   <v>       0.01219512 </v>
   <v>       0.01219512 </v>
   <v>       0.01219512 </v>
   <v>       0.01219512 </v>
   <v>       0.01219512 </v>
   <v>       0.01219512 </v>
   <v>       0.01219512 </v>
   <v>       0.01219512 </v>
   <v>       0.01219512 </v>
   <v>       0.01219512 </v>
   <v>       0.01219512 </v>
   <v>       0.01219512 </v>
   <v>       0.01219512 </v>
   <v>       0.01219512 </v>
   <v>       0.01219512 </v>
   <v>       0.01219512 </v>
   <v>       0.01219512 </v>
   <v>       0.01219512 </v>
   <v>       0.01219512 </v>
   <v>       0.01219512 </v>
   <v>       0.01219512 </v>
   <v>       0.01219512 </v>
   <v>       0.01219512 </v>
   <v>       0.01219512 </v>
   <v>       0.01219512 </v>
   <v>       0.01219512 </v>
   <v>       0.01219512 </v>
   <v>       0.01219512 </v>
   <v>       0.01219512 </v>
   <v>       0.01219512 </v>
   <v>       0.01219512 </v>
   <v>       0.01219512 </v>
   <v>       0.01219512 </v>
   <v>       0.01219512 </v>
   <v>       0.01219512 </v>
   <v>       0.01219512 </v>
   <v>       0.01219512 </v>
   <v>       0.01219512 </v>
   <v>       0.01219512 </v>
   <v>       0.01219512 </v>
   <v>       0.01219512 </v>
   <v>       0.01219512 </v>
   <v>       0.01219512 </v>
   <v>       0.01219512 </v>
   <v>       0.01219512 </v>
   <v>       0.01219512 </v>
   <v>       0.01219512 </v>
   <v>       0.01219512 </v>
   <v>       0.01219512 </v>
   <v>       0.01219512 </v>
   <v>       0.01219512 </v>
   <v>       0.01219512 </v>
   <v>       0.01219512 </v>
   <v>       0.01219512 </v>
   <v>       0.01219512 </v>
   <v>       0.01219512 </v>
   <v>       0.01219512 </v>
   <v>       0.01219512 </v>
   <v>       0.01219512 </v>
   <v>       0.01219512 </v>
   <v>       0.01219512 </v>
   <v>       0.01219512 </v>
   <v>       0.01219512 </v>
   <v>       0.01219512 </v>
   <v>       0.01219512 </v>
   <v>       0.01219512 </v>
   <v>       0.01219512 </v>
   <v>       0.01219512 </v>
   <v>       0.01219512 </v>
   <v>       0.01219512 </v>
   <v>       0.01219512 </v>
   <v>       0.01219512 </v>
   <v>       0.01219512 </v>
   <v>       0.01219512 </v>
  </varray>
 </kpoints>
 <parameters>
  <separator name="general" >
   <i type="string" name="SYSTEM">Germanium Diamond w/ SOC</i>
   <i type="logical" name="LCOMPAT"> F  </i>
  </separator>
  <separator name="electronic" >
   <i type="string" name="PREC">accura</i>
   <i name="ENMAX">    320.00000000</i>
   <i name="ENAUG">    640.00000000</i>
   <i name="EDIFF">      0.00001000</i>
   <i type="int" name="IALGO">    68</i>
   <i type="int" name="IWAVPR">     0</i>
   <i type="int" name="NBANDS">    24</i>
   <i name="NELECT">      8.00000000</i>
   <i type="int" name="TURBO">     0</i>
   <i type="int" name="IRESTART">     0</i>
   <i type="int" name="NREBOOT">     0</i>
   <i type="int" name="NMIN">     0</i>
   <i name="EREF">      0.00000000</i>
   <separator name="electronic smearing" >
    <i type="int" name="ISMEAR">     0</i>
    <i name="SIGMA">      0.10000000</i>
    <i name="KSPACING">      0.50000000</i>
    <i type="logical" name="KGAMMA"> T  </i>
   </separator>
   <separator name="electronic projectors" >
    <i type="logical" name="LREAL"> F  </i>
    <v name="ROPT">      0.00000000</v>
    <i type="int" name="LMAXPAW">  -100</i>
    <i type="int" name="LMAXMIX">     2</i>
    <i type="logical" name="NLSPLINE"> F  </i>
   </separator>
   <separator name="electronic startup" >
    <i type="int" name="ISTART">     0</i>
    <i type="int" name="ICHARG">    11</i>
    <i type="int" name="INIWAV">     1</i>
   </separator>
   <separator name="electronic spin" >
    <i type="int" name="ISPIN">     1</i>
    <i type="logical" name="LNONCOLLINEAR"> T  </i>
    <v name="MAGMOM">      0.00000000      0.00000000      0.00000000      0.00000000      0.00000000      0.00000000</v>
    <i name="NUPDOWN">     -1.00000000</i>
    <i type="logical" name="LSORBIT"> T  </i>
    <v name="SAXIS">      0.00000000      0.00000000      1.00000000</v>
    <i type="logical" name="LSPIRAL"> F  </i>
    <v name="QSPIRAL">      0.00000000      0.00000000      0.00000000</v>
    <i type="logical" name="LZEROZ"> F  </i>
   </separator>
   <separator name="electronic exchange-correlation" >
    <i type="logical" name="LASPH"> F  </i>
    <i type="logical" name="LMETAGGA"> F  </i>
   </separator>
   <separator name="electronic convergence" >
    <i type="int" name="NELM">    60</i>
    <i type="int" name="NELMDL">     0</i>
    <i type="int" name="NELMIN">     2</i>
    <i name="ENINI">    320.00000000</i>
    <separator name="electronic convergence detail" >
     <i type="logical" name="LDIAG"> T  </i>
     <i type="logical" name="LSUBROT"> T  </i>
     <i name="WEIMIN">      0.00000000</i>
     <i name="EBREAK">      0.00000010</i>
     <i name="DEPER">      0.30000000</i>
     <i type="int" name="NRMM">     4</i>
     <i name="TIME">      0.40000000</i>
    </separator>
   </separator>
   <separator name="electronic mixer" >
    <i name="AMIX">      0.40000000</i>
    <i name="BMIX">      1.00000000</i>
    <i name="AMIN">      0.10000000</i>
    <i name="AMIX_MAG">      1.60000000</i>
    <i name="BMIX_MAG">      1.00000000</i>
    <separator name="electronic mixer details" >
     <i type="int" name="IMIX">     4</i>
     <i type="int" name="MAXMIX">   -45</i>
     <i name="WC">    100.00000000</i>
     <i type="int" name="INIMIX">     1</i>
     <i type="int" name="MIXPRE">     1</i>
     <i type="int" name="MREMOVE">     5</i>
    </separator>
   </separator>
   <separator name="electronic dipolcorrection" >
    <i type="logical" name="LDIPOL"> F  </i>
    <i type="logical" name="LMONO"> F  </i>
    <i type="int" name="IDIPOL">     0</i>
    <i name="EPSILON">      1.00000000</i>
    <v name="DIPOL">   -100.00000000   -100.00000000   -100.00000000</v>
    <i name="EFIELD">      0.00000000</i>
   </separator>
  </separator>
  <separator name="grids" >
   <i type="int" name="NGX">    24</i>
   <i type="int" name="NGY">    24</i>
   <i type="int" name="NGZ">    24</i>
   <i type="int" name="NGXF">    48</i>
   <i type="int" name="NGYF">    48</i>
   <i type="int" name="NGZF">    48</i>
   <i type="logical" name="ADDGRID"> F  </i>
  </separator>
  <separator name="ionic" >
   <i type="int" name="NSW">     0</i>
   <i type="int" name="IBRION">    -1</i>
   <i type="int" name="ISIF">     2</i>
   <i name="PSTRESS">      0.00000000</i>
   <i name="EDIFFG">      0.00010000</i>
   <i type="int" name="NFREE">     0</i>
   <i name="POTIM">      0.50000000</i>
   <i name="SMASS">     -3.00000000</i>
   <i name="SCALEE">      1.00000000</i>
  </separator>
  <separator name="ionic md" >
   <i name="TEBEG">      0.00010000</i>
   <i name="TEEND">      0.00010000</i>
   <i type="int" name="NBLOCK">     1</i>
   <i type="int" name="KBLOCK">     1</i>
   <i type="int" name="NPACO">   256</i>
   <i name="APACO">     16.00000000</i>
  </separator>
  <separator name="symmetry" >
   <i type="int" name="ISYM">     2</i>
   <i name="SYMPREC">      0.00001000</i>
  </separator>
  <separator name="dos" >
   <i type="logical" name="LORBIT"> F  </i>
   <v name="RWIGS">     -1.00000000</v>
   <i type="int" name="NEDOS">   301</i>
   <i name="EMIN">     10.00000000</i>
   <i name="EMAX">    -10.00000000</i>
   <i name="EFERMI">      0.00000000</i>
  </separator>
  <separator name="writing" >
   <i type="int" name="NWRITE">     2</i>
   <i type="logical" name="LWAVE"> T  </i>
   <i type="logical" name="LCHARG"> T  </i>
   <i type="logical" name="LPARD"> F  </i>
   <i type="logical" name="LVTOT"> F  </i>
   <i type="logical" name="LVHAR"> F  </i>
   <i type="logical" name="LELF"> F  </i>
   <i type="logical" name="LOPTICS"> F  </i>
   <v name="STM">      0.00000000      0.00000000      0.00000000      0.00000000      0.00000000      0.00000000      0.00000000</v>
  </separator>
  <separator name="performance" >
   <i type="int" name="NPAR">     1</i>
   <i type="int" name="NSIM">     4</i>
   <i type="int" name="NBLK">    -1</i>
   <i type="logical" name="LPLANE"> T  </i>
   <i type="logical" name="LSCALAPACK"> F  </i>
   <i type="logical" name="LSCAAWARE"> F  </i>
   <i type="logical" name="LSCALU"> F  </i>
   <i type="logical" name="LASYNC"> F  </i>
   <i type="logical" name="LORBITALREAL"> F  </i>
  </separator>
  <separator name="miscellaneous" >
   <i type="int" name="IDIOT">     3</i>
   <i type="logical" name="LMUSIC"> F  </i>
   <v name="POMASS">     72.61000000</v>
   <v name="DARWINR">      0.00000000</v>
   <v name="DARWINV">      1.00000000</v>
   <i type="logical" name="LCORR"> T  </i>
  </separator>
  <i type="logical" name="GGA_COMPAT"> T  </i>
  <i type="logical" name="LBERRY"> F  </i>
  <i type="int" name="ICORELEVEL">     0</i>
  <i type="logical" name="LDAU"> F  </i>
  <i type="int" name="I_CONSTRAINED_M">     0</i>
  <separator name="electronic exchange-correlation" >
   <i type="string" name="GGA">PS</i>
   <i type="int" name="VOSKOWN">     0</i>
   <i type="logical" name="LHFCALC"> F  </i>
   <i type="string" name="PRECFOCK"></i>
   <i type="logical" name="LSYMGRAD"> F  </i>
   <i type="logical" name="LHFONE"> F  </i>
   <i type="logical" name="LRHFCALC"> F  </i>
   <i type="logical" name="LTHOMAS"> F  </i>
   <i type="logical" name="LMODELHF"> F  </i>
   <i name="ENCUT4O">     -1.00000000</i>
   <i type="int" name="EXXOEP">     0</i>
   <i type="int" name="FOURORBIT">     0</i>
   <i name="AEXX">      0.00000000</i>
   <i name="HFALPHA">      0.00000000</i>
   <i name="MCALPHA">      0.00000000</i>
   <i name="ALDAX">      1.00000000</i>
   <i name="AGGAX">      1.00000000</i>
   <i name="ALDAC">      1.00000000</i>
   <i name="AGGAC">      1.00000000</i>
   <i type="int" name="NKREDX">     1</i>
   <i type="int" name="NKREDY">     1</i>
   <i type="int" name="NKREDZ">     1</i>
   <i type="logical" name="SHIFTRED"> F  </i>
   <i type="logical" name="ODDONLY"> F  </i>
   <i type="logical" name="EVENONLY"> F  </i>
   <i type="int" name="LMAXFOCK">     0</i>
   <i type="int" name="NMAXFOCKAE">     0</i>
   <i type="logical" name="LFOCKAEDFT"> F  </i>
   <i name="HFSCREEN">      0.00000000</i>
   <i name="HFSCREENC">      0.00000000</i>
   <i type="int" name="NBANDSGWLOW">     0</i>
  </separator>
  <separator name="vdW DFT" >
   <i type="logical" name="LUSE_VDW"> F  </i>
   <i name="Zab_VDW">     -0.84910000</i>
   <i name="PARAM1">      0.12340000</i>
   <i name="PARAM2">      1.00000000</i>
   <i name="PARAM3">      0.00000000</i>
  </separator>
  <separator name="model GW" >
   <i type="int" name="MODEL_GW">     0</i>
   <i name="MODEL_EPS0">     13.91648090</i>
   <i name="MODEL_ALPHA">      1.00000000</i>
  </separator>
  <separator name="linear response parameters" >
   <i type="logical" name="LEPSILON"> F  </i>
   <i type="logical" name="LRPA"> F  </i>
   <i type="logical" name="LNABLA"> F  </i>
   <i type="logical" name="LVEL"> F  </i>
   <i type="int" name="KINTER">     0</i>
   <i name="CSHIFT">      0.10000000</i>
   <i name="OMEGAMAX">     -1.00000000</i>
   <i name="DEG_THRESHOLD">      0.00200000</i>
  </separator>
  <separator name="orbital magnetization" >
   <i type="logical" name="NUCIND"> F  </i>
   <v name="MAGPOS">      0.00000000      0.00000000      0.00000000</v>
   <i type="logical" name="LNICSALL"> T  </i>
   <i type="logical" name="ORBITALMAG"> F  </i>
   <i type="logical" name="LMAGBLOCH"> F  </i>
   <i type="logical" name="LCHIMAG"> F  </i>
   <i type="logical" name="LGAUGE"> T  </i>
   <i type="int" name="MAGATOM">     0</i>
   <v name="MAGDIPOL">      0.00000000      0.00000000      0.00000000</v>
   <v name="AVECCONST">      0.00000000      0.00000000      0.00000000</v>
  </separator>
  <separator name="response functions" >
   <i type="logical" name="LADDER"> F  </i>
   <i type="logical" name="LFXC"> F  </i>
   <i type="logical" name="LHARTREE"> T  </i>
   <i type="int" name="IBSE">     0</i>
   <i type="logical" name="LTCTE"> F  </i>
   <i type="logical" name="LTETE"> F  </i>
   <i type="logical" name="LTRIPLET"> F  </i>
   <i type="logical" name="LFXCEPS"> F  </i>
   <i type="logical" name="L2ORDER"> F  </i>
   <i type="logical" name="LUSEW"> F  </i>
   <i name="ENCUTGW">     -2.00000000</i>
   <i name="ENCUTGWSOFT">     -2.00000000</i>
   <i name="ENCUTLF">     -1.00000000</i>
   <i type="int" name="LMAXMP2">    -1</i>
   <i name="SCISSOR">      0.00000000</i>
   <i type="int" name="NOMEGA">     0</i>
   <i type="int" name="NOMEGAR">     0</i>
   <i type="int" name="NBANDSGW">    -1</i>
   <i type="int" name="NBANDSO">    -1</i>
   <i type="int" name="NBANDSV">    -1</i>
   <i type="int" name="NELM">     1</i>
   <i type="int" name="DIM">     3</i>
   <i type="int" name="ANTIRES">     0</i>
   <i name="OMEGAMAX">    -30.00000000</i>
   <i name="OMEGATL">   -200.00000000</i>
   <i type="int" name="OMEGAGRID">     0</i>
   <i name="CSHIFT">     -0.10000000</i>
   <i type="logical" name="SELFENERGY"> F  </i>
   <i type="logical" name="LSPECTRAL"> F  </i>
   <i type="logical" name="ODDONLYGW"> F  </i>
   <i type="logical" name="EVENONLYGW"> F  </i>
   <i type="int" name="NKREDLFX">     1</i>
   <i type="int" name="NKREDLFY">     1</i>
   <i type="int" name="NKREDLFZ">     1</i>
   <i type="int" name="MAXMEM">  1800</i>
   <i type="int" name="TELESCOPE">     0</i>
  </separator>
 </parameters>
 <atominfo>
  <atoms>       2 </atoms>
  <types>       1 </types>
  <array name="atoms" >
   <dimension dim="1">ion</dimension>
   <field type="string">element</field>
   <field type="int">atomtype</field>
   <set>
    <rc><c>Ge</c><c>   1</c></rc>
    <rc><c>Ge</c><c>   1</c></rc>
   </set>
  </array>
  <array name="atomtypes" >
   <dimension dim="1">type</dimension>
   <field type="int">atomspertype</field>
   <field type="string">element</field>
   <field>mass</field>
   <field>valence</field>
   <field type="string">pseudopotential</field>
   <set>
    <rc><c>   2</c><c>Ge</c><c>     72.61000000</c><c>      4.00000000</c><c>  PAW_PBE Ge 05Jan2001                  </c></rc>
   </set>
  </array>
 </atominfo>
 <structure name="initialpos" >
  <crystal>
   <varray name="basis" >
    <v>       0.00000000       2.85184593       2.85184593 </v>
    <v>       2.85184593       0.00000000       2.85184593 </v>
    <v>       2.85184593       2.85184593       0.00000000 </v>
   </varray>
   <i name="volume">     46.38826968 </i>
   <varray name="rec_basis" >
    <v>      -0.17532504       0.17532504       0.17532504 </v>
    <v>       0.17532504      -0.17532504       0.17532504 </v>
    <v>       0.17532504       0.17532504      -0.17532504 </v>
   </varray>
  </crystal>
  <varray name="positions" >
   <v>       0.00000000       0.00000000       0.00000000 </v>
   <v>       0.25000000       0.25000000       0.25000000 </v>
  </varray>
 </structure>
 <calculation>
  <scstep>
   <time name="dav">  201.40   16.81</time>
   <time name="total">  205.83   17.56</time>
   <energy>
    <i name="alphaZ">     16.48109036 </i>
    <i name="ewald">   -217.59589592 </i>
    <i name="hartreedc">    -15.72720117 </i>
    <i name="XCdc">    -13.89528230 </i>
    <i name="pawpsdc">    446.28823711 </i>
    <i name="pawaedc">   -417.75371710 </i>
    <i name="eentropy">     -0.00673641 </i>
    <i name="bandstr">      9.95814129 </i>
    <i name="atom">    209.64974535 </i>
    <i name="e_fr_energy">     17.39838120 </i>
    <i name="e_wo_entrp">     17.40511761 </i>
    <i name="e_0_energy">     17.40174941 </i>
   </energy>
  </scstep>
  <scstep>
   <time name="dav">  242.10   20.18</time>
   <time name="total">  242.22   20.19</time>
   <energy>
    <i name="e_fr_energy">     -3.28055429 </i>
    <i name="e_wo_entrp">     -3.27287085 </i>
    <i name="e_0_energy">     -3.27671257 </i>
   </energy>
  </scstep>
  <scstep>
   <time name="dav">  241.19   20.10</time>
   <time name="total">  241.28   20.11</time>
   <energy>
    <i name="e_fr_energy">     -4.32283334 </i>
    <i name="e_wo_entrp">     -4.31247654 </i>
    <i name="e_0_energy">     -4.31765494 </i>
   </energy>
  </scstep>
  <scstep>
   <time name="dav">  212.01   17.67</time>
   <time name="total">  212.12   17.68</time>
   <energy>
    <i name="e_fr_energy">     -4.32669241 </i>
    <i name="e_wo_entrp">     -4.31634422 </i>
    <i name="e_0_energy">     -4.32151831 </i>
   </energy>
  </scstep>
  <scstep>
   <time name="dav">  242.06   20.17</time>
   <time name="total">  242.17   20.18</time>
   <energy>
    <i name="e_fr_energy">     -4.32669913 </i>
    <i name="e_wo_entrp">     -4.31635096 </i>
    <i name="e_0_energy">     -4.32152505 </i>
   </energy>
  </scstep>
  <scstep>
   <time name="diag">   63.30    5.28</time>
   <time name="diis">  108.19    9.81</time>
   <time name="orth">    0.64    0.05</time>
   <time name="total">  172.24   15.15</time>
   <energy>
    <i name="alphaZ">     16.48109036 </i>
    <i name="ewald">   -217.59589592 </i>
    <i name="hartreedc">    -15.72720117 </i>
    <i name="XCdc">    -13.89528230 </i>
    <i name="pawpsdc">    446.28823711 </i>
    <i name="pawaedc">   -417.75371710 </i>
    <i name="eentropy">     -0.01034816 </i>
    <i name="bandstr">    -11.76332731 </i>
    <i name="atom">    209.64974535 </i>
    <i name="e_fr_energy">     -4.32669915 </i>
    <i name="e_wo_entrp">     -4.31635098 </i>
    <i name="e_0_energy">     -4.32152507 </i>
   </energy>
  </scstep>
  <structure>
   <crystal>
    <varray name="basis" >
     <v>       0.00000000       2.85184593       2.85184593 </v>
     <v>       2.85184593       0.00000000       2.85184593 </v>
     <v>       2.85184593       2.85184593       0.00000000 </v>
    </varray>
    <i name="volume">     46.38826968 </i>
    <varray name="rec_basis" >
     <v>      -0.17532504       0.17532504       0.17532504 </v>
     <v>       0.17532504      -0.17532504       0.17532504 </v>
     <v>       0.17532504       0.17532504      -0.17532504 </v>
    </varray>
   </crystal>
   <varray name="positions" >
    <v>       0.00000000       0.00000000       0.00000000 </v>
    <v>       0.25000000       0.25000000       0.25000000 </v>
   </varray>
  </structure>
  <varray name="forces" >
   <v>       0.00000000       0.00000000       0.00000000 </v>
   <v>      -0.00000000      -0.00000000      -0.00000000 </v>
  </varray>
  <varray name="stress" >
   <v>     270.69273906      -0.00000000       0.00000000 </v>
   <v>      -0.00000000     270.69273906       0.00000000 </v>
   <v>      -0.00000000      -0.00000000     270.69273906 </v>
  </varray>
  <energy>
   <i name="e_fr_energy">     -4.32669915 </i>
   <i name="e_wo_entrp">     -4.32152507 </i>
   <i name="e_0_energy">     -0.01034816 </i>
  </energy>
  <time name="totalsc"> 1325.08  116.24</time>
  <eigenvalues>
   <array>
    <dimension dim="1">band</dimension>
    <dimension dim="2">kpoint</dimension>
    <dimension dim="3">spin</dimension>
    <field>eigene</field>
    <field>occ</field>
    <set>
     <set comment="spin 1">
      <set comment="kpoint 1">
       <r>   -7.1481    1.0000 </r>
       <r>   -7.1481    1.0000 </r>
       <r>   -4.0901    1.0000 </r>
       <r>   -4.0901    1.0000 </r>
       <r>    1.9658    1.0000 </r>
       <r>    1.9658    1.0000 </r>
       <r>    2.1473    1.0000 </r>
       <r>    2.1473    1.0000 </r>
       <r>    3.4884    0.6460 </r>
       <r>    3.4884    0.6460 </r>
       <r>    7.0605    0.0000 </r>
       <r>    7.0605    0.0000 </r>
       <r>    7.1492    0.0000 </r>
       <r>    7.1492    0.0000 </r>
       <r>   10.3541    0.0000 </r>
       <r>   10.3541    0.0000 </r>
       <r>   13.6609    0.0000 </r>
       <r>   13.6609    0.0000 </r>
       <r>   14.1811    0.0000 </r>
       <r>   14.1811    0.0000 </r>
       <r>   14.3376    0.0000 </r>
       <r>   14.3376    0.0000 </r>
       <r>   14.4367    0.0000 </r>
       <r>   14.4367    0.0000 </r>
      </set>
      <set comment="kpoint 2">
       <r>   -7.1728    1.0000 </r>
       <r>   -7.1728    1.0000 </r>
       <r>   -4.0513    1.0000 </r>
       <r>   -4.0513    1.0000 </r>
       <r>    1.9707    1.0000 </r>
       <r>    1.9707    1.0000 </r>
       <r>    2.1521    1.0000 </r>
       <r>    2.1521    1.0000 </r>
       <r>    3.4931    0.6208 </r>
       <r>    3.4931    0.6208 </r>
       <r>    7.0623    0.0000 </r>
       <r>    7.0623    0.0000 </r>
       <r>    7.1514    0.0000 </r>
       <r>    7.1514    0.0000 </r>
       <r>   10.3610    0.0000 </r>
       <r>   10.3610    0.0000 </r>
       <r>   13.3734    0.0000 </r>
       <r>   13.3734    0.0000 </r>
       <r>   14.1592    0.0000 </r>
       <r>   14.1592    0.0000 </r>
       <r>   14.2572    0.0000 </r>
       <r>   14.2572    0.0000 </r>
       <r>   14.4714    0.0000 </r>
       <r>   14.4714    0.0000 </r>
      </set>
      <set comment="kpoint 3">
       <r>   -7.2434    1.0000 </r>
       <r>   -7.2434    1.0000 </r>
       <r>   -3.9390    1.0000 </r>
       <r>   -3.9390    1.0000 </r>
       <r>    1.9851    1.0000 </r>
       <r>    1.9851    1.0000 </r>
       <r>    2.1666    1.0000 </r>
       <r>    2.1666    1.0000 </r>
       <r>    3.5073    0.5429 </r>
       <r>    3.5073    0.5429 </r>
       <r>    7.0672    0.0000 </r>
       <r>    7.0672    0.0000 </r>
       <r>    7.1577    0.0000 </r>
       <r>    7.1577    0.0000 </r>
       <r>   10.3811    0.0000 </r>
       <r>   10.3811    0.0000 </r>
       <r>   12.9211    0.0000 </r>
       <r>   12.9211    0.0000 </r>
       <r>   13.8237    0.0000 </r>
       <r>   13.8237    0.0000 </r>
       <r>   13.9050    0.0000 </r>
       <r>   13.9050    0.0000 </r>
       <r>   14.8889    0.0000 </r>
       <r>   14.8889    0.0000 </r>
      </set>
      <set comment="kpoint 4">
       <r>   -7.3504    1.0000 </r>
       <r>   -7.3504    1.0000 </r>
       <r>   -3.7624    1.0000 </r>
       <r>   -3.7624    1.0000 </r>
       <r>    2.0092    1.0000 </r>
       <r>    2.0092    1.0000 </r>
       <r>    2.1907    1.0000 </r>
       <r>    2.1907    1.0000 </r>
       <r>    3.5308    0.4112 </r>
       <r>    3.5308    0.4112 </r>
       <r>    7.0743    0.0000 </r>
       <r>    7.0743    0.0000 </r>
       <r>    7.1670    0.0000 </r>
       <r>    7.1670    0.0000 </r>
       <r>   10.4125    0.0000 </r>
       <r>   10.4125    0.0000 </r>
       <r>   12.4542    0.0000 </r>
       <r>   12.4542    0.0000 </r>
       <r>   13.4526    0.0000 </r>
       <r>   13.4526    0.0000 </r>
       <r>   13.5240    0.0000 </r>
       <r>   13.5240    0.0000 </r>
       <r>   15.2836    0.0000 </r>
       <r>   15.2836    0.0000 </r>
      </set>
      <set comment="kpoint 5">
       <r>   -7.4830    1.0000 </r>
       <r>   -7.4830    1.0000 </r>
       <r>   -3.5326    1.0000 </r>
       <r>   -3.5326    1.0000 </r>
       <r>    2.0428    1.0000 </r>
       <r>    2.0428    1.0000 </r>
       <r>    2.2243    1.0000 </r>
       <r>    2.2243    1.0000 </r>
       <r>    3.5635    0.2460 </r>
       <r>    3.5635    0.2460 </r>
       <r>    7.0819    0.0000 </r>
       <r>    7.0819    0.0000 </r>
       <r>    7.1778    0.0000 </r>
       <r>    7.1778    0.0000 </r>
       <r>   10.4499    0.0000 </r>
       <r>   10.4499    0.0000 </r>
       <r>   11.9952    0.0000 </r>
       <r>   11.9952    0.0000 </r>
       <r>   13.0883    0.0000 </r>
       <r>   13.0883    0.0000 </r>
       <r>   13.1520    0.0000 </r>
       <r>   13.1520    0.0000 </r>
       <r>   15.5994    0.0000 </r>
       <r>   15.5995    0.0000 </r>
      </set>
      <set comment="kpoint 6">
       <r>   -7.6311    1.0000 </r>
       <r>   -7.6311    1.0000 </r>
       <r>   -3.2599    1.0000 </r>
       <r>   -3.2599    1.0000 </r>
       <r>    2.0858    1.0000 </r>
       <r>    2.0858    1.0000 </r>
       <r>    2.2674    1.0000 </r>
       <r>    2.2674    1.0000 </r>
       <r>    3.6053    0.1006 </r>
       <r>    3.6053    0.1006 </r>
       <r>    7.0876    0.0000 </r>
       <r>    7.0876    0.0000 </r>
       <r>    7.1875    0.0000 </r>
       <r>    7.1875    0.0000 </r>
       <r>   10.4788    0.0000 </r>
       <r>   10.4788    0.0000 </r>
       <r>   11.5631    0.0000 </r>
       <r>   11.5631    0.0000 </r>
       <r>   12.7456    0.0000 </r>
       <r>   12.7456    0.0000 </r>
       <r>   12.8022    0.0000 </r>
       <r>   12.8022    0.0000 </r>
       <r>   15.7730    0.0000 </r>
       <r>   15.7730    0.0000 </r>
      </set>
      <set comment="kpoint 7">
       <r>   -7.7866    1.0000 </r>
       <r>   -7.7866    1.0000 </r>
       <r>   -2.9526    1.0000 </r>
       <r>   -2.9526    1.0000 </r>
       <r>    2.1380    1.0000 </r>
       <r>    2.1380    1.0000 </r>
       <r>    2.3196    1.0000 </r>
       <r>    2.3196    1.0000 </r>
       <r>    3.6559    0.0231 </r>
       <r>    3.6559    0.0231 </r>
       <r>    7.0882    0.0000 </r>
       <r>    7.0882    0.0000 </r>
       <r>    7.1930    0.0000 </r>
       <r>    7.1930    0.0000 </r>
       <r>   10.4511    0.0000 </r>
       <r>   10.4511    0.0000 </r>
       <r>   11.2068    0.0000 </r>
       <r>   11.2068    0.0000 </r>
       <r>   12.4328    0.0000 </r>
       <r>   12.4328    0.0000 </r>
       <r>   12.4825    0.0000 </r>
       <r>   12.4825    0.0000 </r>
       <r>   15.7461    0.0000 </r>
       <r>   15.7461    0.0000 </r>
      </set>
      <set comment="kpoint 8">
       <r>   -7.9439    1.0000 </r>
       <r>   -7.9439    1.0000 </r>
       <r>   -2.6167    1.0000 </r>
       <r>   -2.6167    1.0000 </r>
       <r>    2.1992    1.0000 </r>
       <r>    2.1992    1.0000 </r>
       <r>    2.3809    1.0000 </r>
       <r>    2.3809    1.0000 </r>
       <r>    3.7149    0.0023 </r>
       <r>    3.7149    0.0023 </r>
       <r>    7.0801    0.0000 </r>
       <r>    7.0801    0.0000 </r>
       <r>    7.1905    0.0000 </r>
       <r>    7.1905    0.0000 </r>
       <r>   10.2597    0.0000 </r>
       <r>   10.2597    0.0000 </r>
       <r>   11.0326    0.0000 </r>
       <r>   11.0326    0.0000 </r>
       <r>   12.1563    0.0000 </r>
       <r>   12.1563    0.0000 </r>
       <r>   12.1988    0.0000 </r>
       <r>   12.1988    0.0000 </r>
       <r>   15.5173    0.0000 </r>
       <r>   15.5173    0.0000 </r>
      </set>
      <set comment="kpoint 9">
       <r>   -8.0987    1.0000 </r>
       <r>   -8.0987    1.0000 </r>
       <r>   -2.2570    1.0000 </r>
       <r>   -2.2570    1.0000 </r>
       <r>    2.2690    1.0000 </r>
       <r>    2.2690    1.0000 </r>
       <r>    2.4509    1.0000 </r>
       <r>    2.4509    1.0000 </r>
       <r>    3.7817    0.0001 </r>
       <r>    3.7817    0.0001 </r>
       <r>    7.0594    0.0000 </r>
       <r>    7.0594    0.0000 </r>
       <r>    7.1758    0.0000 </r>
       <r>    7.1758    0.0000 </r>
       <r>    9.9096    0.0000 </r>
       <r>    9.9096    0.0000 </r>
       <r>   11.0326    0.0000 </r>
       <r>   11.0326    0.0000 </r>
       <r>   11.9218    0.0000 </r>
       <r>   11.9218    0.0000 </r>
       <r>   11.9570    0.0000 </r>
       <r>   11.9570    0.0000 </r>
       <r>   15.1475    0.0000 </r>
       <r>   15.1475    0.0000 </r>
      </set>
      <set comment="kpoint 10">
       <r>   -8.2479    1.0000 </r>
       <r>   -8.2479    1.0000 </r>
       <r>   -1.8771    1.0000 </r>
       <r>   -1.8771    1.0000 </r>
       <r>    2.3469    1.0000 </r>
       <r>    2.3469    1.0000 </r>
       <r>    2.5291    1.0000 </r>
       <r>    2.5291    1.0000 </r>
       <r>    3.8555    0.0000 </r>
       <r>    3.8555    0.0000 </r>
       <r>    7.0221    0.0000 </r>
       <r>    7.0221    0.0000 </r>
       <r>    7.1447    0.0000 </r>
       <r>    7.1447    0.0000 </r>
       <r>    9.5036    0.0000 </r>
       <r>    9.5036    0.0000 </r>
       <r>   11.0988    0.0000 </r>
       <r>   11.0988    0.0000 </r>
       <r>   11.7341    0.0000 </r>
       <r>   11.7341    0.0000 </r>
       <r>   11.7621    0.0000 </r>
       <r>   11.7621    0.0000 </r>
       <r>   14.7075    0.0000 </r>
       <r>   14.7075    0.0000 </r>
      </set>
      <set comment="kpoint 11">
       <r>   -8.3895    1.0000 </r>
       <r>   -8.3895    1.0000 </r>
       <r>   -1.4796    1.0000 </r>
       <r>   -1.4796    1.0000 </r>
       <r>    2.4325    1.0000 </r>
       <r>    2.4325    1.0000 </r>
       <r>    2.6149    1.0000 </r>
       <r>    2.6149    1.0000 </r>
       <r>    3.9352    0.0000 </r>
       <r>    3.9352    0.0000 </r>
       <r>    6.9655    0.0000 </r>
       <r>    6.9655    0.0000 </r>
       <r>    7.0938    0.0000 </r>
       <r>    7.0938    0.0000 </r>
       <r>    9.0842    0.0000 </r>
       <r>    9.0842    0.0000 </r>
       <r>   11.1785    0.0000 </r>
       <r>   11.1785    0.0000 </r>
       <r>   11.5974    0.0000 </r>
       <r>   11.5974    0.0000 </r>
       <r>   11.6185    0.0000 </r>
       <r>   11.6185    0.0000 </r>
       <r>   14.2525    0.0000 </r>
       <r>   14.2525    0.0000 </r>
      </set>
      <set comment="kpoint 12">
       <r>   -8.5218    1.0000 </r>
       <r>   -8.5218    1.0000 </r>
       <r>   -1.0670    1.0000 </r>
       <r>   -1.0670    1.0000 </r>
       <r>    2.5248    1.0000 </r>
       <r>    2.5248    1.0000 </r>
       <r>    2.7077    1.0000 </r>
       <r>    2.7077    1.0000 </r>
       <r>    4.0189    0.0000 </r>
       <r>    4.0189    0.0000 </r>
       <r>    6.8878    0.0000 </r>
       <r>    6.8878    0.0000 </r>
       <r>    7.0212    0.0000 </r>
       <r>    7.0212    0.0000 </r>
       <r>    8.6646    0.0000 </r>
       <r>    8.6646    0.0000 </r>
       <r>   11.2414    0.0000 </r>
       <r>   11.2414    0.0000 </r>
       <r>   11.5139    0.0000 </r>
       <r>   11.5139    0.0000 </r>
       <r>   11.5289    0.0000 </r>
       <r>   11.5289    0.0000 </r>
       <r>   13.8273    0.0000 </r>
       <r>   13.8273    0.0000 </r>
      </set>
      <set comment="kpoint 13">
       <r>   -8.6436    1.0000 </r>
       <r>   -8.6436    1.0000 </r>
       <r>   -0.6415    1.0000 </r>
       <r>   -0.6415    1.0000 </r>
       <r>    2.6229    1.0000 </r>
       <r>    2.6229    1.0000 </r>
       <r>    2.8064    1.0000 </r>
       <r>    2.8064    1.0000 </r>
       <r>    4.1041    0.0000 </r>
       <r>    4.1041    0.0000 </r>
       <r>    6.7899    0.0000 </r>
       <r>    6.7899    0.0000 </r>
       <r>    6.9270    0.0000 </r>
       <r>    6.9270    0.0000 </r>
       <r>    8.2497    0.0000 </r>
       <r>    8.2497    0.0000 </r>
       <r>   11.2539    0.0000 </r>
       <r>   11.2539    0.0000 </r>
       <r>   11.4838    0.0000 </r>
       <r>   11.4838    0.0000 </r>
       <r>   11.4939    0.0000 </r>
       <r>   11.4939    0.0000 </r>
       <r>   13.4776    0.0000 </r>
       <r>   13.4776    0.0000 </r>
      </set>
      <set comment="kpoint 14">
       <r>   -8.7542    1.0000 </r>
       <r>   -8.7542    1.0000 </r>
       <r>   -0.2051    1.0000 </r>
       <r>   -0.2051    1.0000 </r>
       <r>    2.7255    1.0000 </r>
       <r>    2.7255    1.0000 </r>
       <r>    2.9097    1.0000 </r>
       <r>    2.9097    1.0000 </r>
       <r>    4.1868    0.0000 </r>
       <r>    4.1868    0.0000 </r>
       <r>    6.6744    0.0000 </r>
       <r>    6.6744    0.0000 </r>
       <r>    6.8139    0.0000 </r>
       <r>    6.8139    0.0000 </r>
       <r>    7.8431    0.0000 </r>
       <r>    7.8431    0.0000 </r>
       <r>   11.1780    0.0000 </r>
       <r>   11.1780    0.0000 </r>
       <r>   11.5054    0.0000 </r>
       <r>   11.5054    0.0000 </r>
       <r>   11.5117    0.0000 </r>
       <r>   11.5117    0.0000 </r>
       <r>   13.2501    0.0000 </r>
       <r>   13.2501    0.0000 </r>
      </set>
      <set comment="kpoint 15">
       <r>   -8.8529    1.0000 </r>
       <r>   -8.8529    1.0000 </r>
       <r>    0.2401    1.0000 </r>
       <r>    0.2401    1.0000 </r>
       <r>    2.8306    1.0000 </r>
       <r>    2.8306    1.0000 </r>
       <r>    3.0158    1.0000 </r>
       <r>    3.0158    1.0000 </r>
       <r>    4.2609    0.0000 </r>
       <r>    4.2609    0.0000 </r>
       <r>    6.5459    0.0000 </r>
       <r>    6.5459    0.0000 </r>
       <r>    6.6865    0.0000 </r>
       <r>    6.6865    0.0000 </r>
       <r>    7.4487    0.0000 </r>
       <r>    7.4487    0.0000 </r>
       <r>   10.9976    0.0000 </r>
       <r>   10.9976    0.0000 </r>
       <r>   11.5748    0.0000 </r>
       <r>   11.5748    0.0000 </r>
       <r>   11.5787    0.0000 </r>
       <r>   11.5787    0.0000 </r>
       <r>   13.1679    0.0000 </r>
       <r>   13.1679    0.0000 </r>
      </set>
      <set comment="kpoint 16">
       <r>   -8.9392    1.0000 </r>
       <r>   -8.9392    1.0000 </r>
       <r>    0.6917    1.0000 </r>
       <r>    0.6917    1.0000 </r>
       <r>    2.9359    1.0000 </r>
       <r>    2.9359    1.0000 </r>
       <r>    3.1222    1.0000 </r>
       <r>    3.1222    1.0000 </r>
       <r>    4.3170    0.0000 </r>
       <r>    4.3170    0.0000 </r>
       <r>    6.4102    0.0000 </r>
       <r>    6.4102    0.0000 </r>
       <r>    6.5512    0.0000 </r>
       <r>    6.5512    0.0000 </r>
       <r>    7.0734    0.0000 </r>
       <r>    7.0734    0.0000 </r>
       <r>   10.7399    0.0000 </r>
       <r>   10.7399    0.0000 </r>
       <r>   11.6871    0.0000 </r>
       <r>   11.6871    0.0000 </r>
       <r>   11.6895    0.0000 </r>
       <r>   11.6895    0.0000 </r>
       <r>   13.2090    0.0000 </r>
       <r>   13.2090    0.0000 </r>
      </set>
      <set comment="kpoint 17">
       <r>   -9.0127    1.0000 </r>
       <r>   -9.0127    1.0000 </r>
       <r>    1.1470    1.0000 </r>
       <r>    1.1470    1.0000 </r>
       <r>    3.0383    1.0000 </r>
       <r>    3.0383    1.0000 </r>
       <r>    3.2258    1.0000 </r>
       <r>    3.2258    1.0000 </r>
       <r>    4.3405    0.0000 </r>
       <r>    4.3405    0.0000 </r>
       <r>    6.2734    0.0000 </r>
       <r>    6.2734    0.0000 </r>
       <r>    6.4152    0.0000 </r>
       <r>    6.4152    0.0000 </r>
       <r>    6.7291    0.0000 </r>
       <r>    6.7291    0.0000 </r>
       <r>   10.4520    0.0000 </r>
       <r>   10.4520    0.0000 </r>
       <r>   11.8362    0.0000 </r>
       <r>   11.8362    0.0000 </r>
       <r>   11.8378    0.0000 </r>
       <r>   11.8378    0.0000 </r>
       <r>   13.3299    0.0000 </r>
       <r>   13.3299    0.0000 </r>
      </set>
      <set comment="kpoint 18">
       <r>   -9.0732    1.0000 </r>
       <r>   -9.0732    1.0000 </r>
       <r>    1.6026    1.0000 </r>
       <r>    1.6026    1.0000 </r>
       <r>    3.1335    1.0000 </r>
       <r>    3.1335    1.0000 </r>
       <r>    3.3225    0.9967 </r>
       <r>    3.3225    0.9967 </r>
       <r>    4.3106    0.0000 </r>
       <r>    4.3106    0.0000 </r>
       <r>    6.1398    0.0000 </r>
       <r>    6.1398    0.0000 </r>
       <r>    6.2865    0.0000 </r>
       <r>    6.2865    0.0000 </r>
       <r>    6.4359    0.0000 </r>
       <r>    6.4359    0.0000 </r>
       <r>   10.1733    0.0000 </r>
       <r>   10.1733    0.0000 </r>
       <r>   12.0145    0.0000 </r>
       <r>   12.0145    0.0000 </r>
       <r>   12.0159    0.0000 </r>
       <r>   12.0159    0.0000 </r>
       <r>   13.4925    0.0000 </r>
       <r>   13.4925    0.0000 </r>
      </set>
      <set comment="kpoint 19">
       <r>   -9.1204    1.0000 </r>
       <r>   -9.1204    1.0000 </r>
       <r>    2.0539    1.0000 </r>
       <r>    2.0539    1.0000 </r>
       <r>    3.2164    1.0000 </r>
       <r>    3.2164    1.0000 </r>
       <r>    3.4073    0.9359 </r>
       <r>    3.4073    0.9359 </r>
       <r>    4.2040    0.0000 </r>
       <r>    4.2040    0.0000 </r>
       <r>    6.0113    0.0000 </r>
       <r>    6.0113    0.0000 </r>
       <r>    6.1734    0.0000 </r>
       <r>    6.1734    0.0000 </r>
       <r>    6.2201    0.0000 </r>
       <r>    6.2201    0.0000 </r>
       <r>    9.9312    0.0000 </r>
       <r>    9.9312    0.0000 </r>
       <r>   12.2116    0.0000 </r>
       <r>   12.2116    0.0000 </r>
       <r>   12.2129    0.0000 </r>
       <r>   12.2129    0.0000 </r>
       <r>   13.6670    0.0000 </r>
       <r>   13.6670    0.0000 </r>
      </set>
      <set comment="kpoint 20">
       <r>   -9.1542    1.0000 </r>
       <r>   -9.1542    1.0000 </r>
       <r>    2.4941    1.0000 </r>
       <r>    2.4941    1.0000 </r>
       <r>    3.2807    0.9995 </r>
       <r>    3.2807    0.9995 </r>
       <r>    3.4743    0.7171 </r>
       <r>    3.4743    0.7171 </r>
       <r>    4.0075    0.0000 </r>
       <r>    4.0075    0.0000 </r>
       <r>    5.8985    0.0000 </r>
       <r>    5.8985    0.0000 </r>
       <r>    6.0845    0.0000 </r>
       <r>    6.0845    0.0000 </r>
       <r>    6.0910    0.0000 </r>
       <r>    6.0910    0.0000 </r>
       <r>    9.7446    0.0000 </r>
       <r>    9.7446    0.0000 </r>
       <r>   12.4100    0.0000 </r>
       <r>   12.4100    0.0000 </r>
       <r>   12.4110    0.0000 </r>
       <r>   12.4110    0.0000 </r>
       <r>   13.8257    0.0000 </r>
       <r>   13.8257    0.0000 </r>
      </set>
      <set comment="kpoint 21">
       <r>   -9.1746    1.0000 </r>
       <r>   -9.1746    1.0000 </r>
       <r>    2.9100    1.0000 </r>
       <r>    2.9100    1.0000 </r>
       <r>    3.3158    0.9976 </r>
       <r>    3.3158    0.9976 </r>
       <r>    3.5175    0.4851 </r>
       <r>    3.5175    0.4851 </r>
       <r>    3.7372    0.0008 </r>
       <r>    3.7372    0.0008 </r>
       <r>    5.8246    0.0000 </r>
       <r>    5.8246    0.0000 </r>
       <r>    6.0269    0.0000 </r>
       <r>    6.0269    0.0000 </r>
       <r>    6.0273    0.0000 </r>
       <r>    6.0273    0.0000 </r>
       <r>    9.6269    0.0000 </r>
       <r>    9.6269    0.0000 </r>
       <r>   12.5745    0.0000 </r>
       <r>   12.5745    0.0000 </r>
       <r>   12.5749    0.0000 </r>
       <r>   12.5749    0.0000 </r>
       <r>   13.9387    0.0000 </r>
       <r>   13.9388    0.0000 </r>
      </set>
      <set comment="kpoint 22">
       <r>   -9.1814    1.0000 </r>
       <r>   -9.1814    1.0000 </r>
       <r>    3.2443    0.9999 </r>
       <r>    3.2443    0.9999 </r>
       <r>    3.2451    0.9999 </r>
       <r>    3.2451    0.9999 </r>
       <r>    3.5325    0.4015 </r>
       <r>    3.5325    0.4015 </r>
       <r>    3.5325    0.4015 </r>
       <r>    3.5325    0.4015 </r>
       <r>    5.7998    0.0000 </r>
       <r>    5.7998    0.0000 </r>
       <r>    6.0075    0.0000 </r>
       <r>    6.0075    0.0000 </r>
       <r>    6.0075    0.0000 </r>
       <r>    6.0075    0.0000 </r>
       <r>    9.5867    0.0000 </r>
       <r>    9.5867    0.0000 </r>
       <r>   12.6433    0.0000 </r>
       <r>   12.6433    0.0000 </r>
       <r>   12.6433    0.0000 </r>
       <r>   12.6433    0.0000 </r>
       <r>   13.9636    0.0000 </r>
       <r>   13.9637    0.0000 </r>
      </set>
      <set comment="kpoint 23">
       <r>   -9.1744    1.0000 </r>
       <r>   -9.1744    1.0000 </r>
       <r>    2.9185    1.0000 </r>
       <r>    2.9185    1.0000 </r>
       <r>    3.2997    0.9988 </r>
       <r>    3.2997    0.9988 </r>
       <r>    3.4938    0.6175 </r>
       <r>    3.4938    0.6175 </r>
       <r>    3.7686    0.0002 </r>
       <r>    3.7686    0.0002 </r>
       <r>    5.8185    0.0000 </r>
       <r>    5.8185    0.0000 </r>
       <r>    6.0112    0.0000 </r>
       <r>    6.0112    0.0000 </r>
       <r>    6.0490    0.0000 </r>
       <r>    6.0490    0.0000 </r>
       <r>    9.6277    0.0000 </r>
       <r>    9.6277    0.0000 </r>
       <r>   12.5002    0.0000 </r>
       <r>   12.5002    0.0000 </r>
       <r>   12.6503    0.0000 </r>
       <r>   12.6503    0.0000 </r>
       <r>   13.9856    0.0000 </r>
       <r>   13.9858    0.0000 </r>
      </set>
      <set comment="kpoint 24">
       <r>   -9.1537    1.0000 </r>
       <r>   -9.1537    1.0000 </r>
       <r>    2.5372    1.0000 </r>
       <r>    2.5372    1.0000 </r>
       <r>    3.2143    1.0000 </r>
       <r>    3.2143    1.0000 </r>
       <r>    3.3861    0.9658 </r>
       <r>    3.3861    0.9658 </r>
       <r>    4.1350    0.0000 </r>
       <r>    4.1350    0.0000 </r>
       <r>    5.8063    0.0000 </r>
       <r>    5.8063    0.0000 </r>
       <r>    6.0850    0.0000 </r>
       <r>    6.0850    0.0000 </r>
       <r>    6.1675    0.0000 </r>
       <r>    6.1675    0.0000 </r>
       <r>    9.7472    0.0000 </r>
       <r>    9.7472    0.0000 </r>
       <r>   12.1715    0.0000 </r>
       <r>   12.1715    0.0000 </r>
       <r>   12.6715    0.0000 </r>
       <r>   12.6715    0.0000 </r>
       <r>   14.0296    0.0000 </r>
       <r>   14.0309    0.0000 </r>
      </set>
      <set comment="kpoint 25">
       <r>   -9.1190    1.0000 </r>
       <r>   -9.1190    1.0000 </r>
       <r>    2.1486    1.0000 </r>
       <r>    2.1486    1.0000 </r>
       <r>    3.0772    1.0000 </r>
       <r>    3.0772    1.0000 </r>
       <r>    3.2288    1.0000 </r>
       <r>    3.2288    1.0000 </r>
       <r>    4.5068    0.0000 </r>
       <r>    4.5068    0.0000 </r>
       <r>    5.7169    0.0000 </r>
       <r>    5.7169    0.0000 </r>
       <r>    6.2648    0.0000 </r>
       <r>    6.2648    0.0000 </r>
       <r>    6.3490    0.0000 </r>
       <r>    6.3490    0.0000 </r>
       <r>    9.9361    0.0000 </r>
       <r>    9.9361    0.0000 </r>
       <r>   11.7769    0.0000 </r>
       <r>   11.7769    0.0000 </r>
       <r>   12.7068    0.0000 </r>
       <r>   12.7068    0.0000 </r>
       <r>   14.1015    0.0000 </r>
       <r>   14.1018    0.0000 </r>
      </set>
      <set comment="kpoint 26">
       <r>   -9.0706    1.0000 </r>
       <r>   -9.0706    1.0000 </r>
       <r>    1.7588    1.0000 </r>
       <r>    1.7588    1.0000 </r>
       <r>    2.9085    1.0000 </r>
       <r>    2.9085    1.0000 </r>
       <r>    3.0411    1.0000 </r>
       <r>    3.0411    1.0000 </r>
       <r>    4.8696    0.0000 </r>
       <r>    4.8696    0.0000 </r>
       <r>    5.5863    0.0000 </r>
       <r>    5.5863    0.0000 </r>
       <r>    6.5061    0.0000 </r>
       <r>    6.5061    0.0000 </r>
       <r>    6.5781    0.0000 </r>
       <r>    6.5781    0.0000 </r>
       <r>   10.1835    0.0000 </r>
       <r>   10.1835    0.0000 </r>
       <r>   11.3716    0.0000 </r>
       <r>   11.3716    0.0000 </r>
       <r>   12.7563    0.0000 </r>
       <r>   12.7563    0.0000 </r>
       <r>   14.2027    0.0000 </r>
       <r>   14.2031    0.0000 </r>
      </set>
      <set comment="kpoint 27">
       <r>   -9.0084    1.0000 </r>
       <r>   -9.0084    1.0000 </r>
       <r>    1.3695    1.0000 </r>
       <r>    1.3695    1.0000 </r>
       <r>    2.7212    1.0000 </r>
       <r>    2.7212    1.0000 </r>
       <r>    2.8371    1.0000 </r>
       <r>    2.8371    1.0000 </r>
       <r>    5.2147    0.0000 </r>
       <r>    5.2147    0.0000 </r>
       <r>    5.4347    0.0000 </r>
       <r>    5.4347    0.0000 </r>
       <r>    6.7847    0.0000 </r>
       <r>    6.7847    0.0000 </r>
       <r>    6.8421    0.0000 </r>
       <r>    6.8421    0.0000 </r>
       <r>   10.4785    0.0000 </r>
       <r>   10.4785    0.0000 </r>
       <r>   10.9836    0.0000 </r>
       <r>   10.9836    0.0000 </r>
       <r>   12.8198    0.0000 </r>
       <r>   12.8198    0.0000 </r>
       <r>   14.3314    0.0000 </r>
       <r>   14.3356    0.0000 </r>
      </set>
      <set comment="kpoint 28">
       <r>   -8.9326    1.0000 </r>
       <r>   -8.9326    1.0000 </r>
       <r>    0.9816    1.0000 </r>
       <r>    0.9816    1.0000 </r>
       <r>    2.5249    1.0000 </r>
       <r>    2.5249    1.0000 </r>
       <r>    2.6264    1.0000 </r>
       <r>    2.6264    1.0000 </r>
       <r>    5.2730    0.0000 </r>
       <r>    5.2730    0.0000 </r>
       <r>    5.5315    0.0000 </r>
       <r>    5.5315    0.0000 </r>
       <r>    7.0881    0.0000 </r>
       <r>    7.0881    0.0000 </r>
       <r>    7.1313    0.0000 </r>
       <r>    7.1313    0.0000 </r>
       <r>   10.6334    0.0000 </r>
       <r>   10.6334    0.0000 </r>
       <r>   10.8122    0.0000 </r>
       <r>   10.8122    0.0000 </r>
       <r>   12.8976    0.0000 </r>
       <r>   12.8976    0.0000 </r>
       <r>   14.4897    0.0000 </r>
       <r>   14.4928    0.0000 </r>
      </set>
      <set comment="kpoint 29">
       <r>   -8.8430    1.0000 </r>
       <r>   -8.8430    1.0000 </r>
       <r>    0.5956    1.0000 </r>
       <r>    0.5956    1.0000 </r>
       <r>    2.3260    1.0000 </r>
       <r>    2.3260    1.0000 </r>
       <r>    2.4152    1.0000 </r>
       <r>    2.4152    1.0000 </r>
       <r>    5.1084    0.0000 </r>
       <r>    5.1084    0.0000 </r>
       <r>    5.8063    0.0000 </r>
       <r>    5.8063    0.0000 </r>
       <r>    7.4091    0.0000 </r>
       <r>    7.4091    0.0000 </r>
       <r>    7.4391    0.0000 </r>
       <r>    7.4391    0.0000 </r>
       <r>   10.3405    0.0000 </r>
       <r>   10.3405    0.0000 </r>
       <r>   11.1773    0.0000 </r>
       <r>   11.1773    0.0000 </r>
       <r>   12.9894    0.0000 </r>
       <r>   12.9894    0.0000 </r>
       <r>   14.6777    0.0000 </r>
       <r>   14.6800    0.0000 </r>
      </set>
      <set comment="kpoint 30">
       <r>   -8.7399    1.0000 </r>
       <r>   -8.7399    1.0000 </r>
       <r>    0.2118    1.0000 </r>
       <r>    0.2118    1.0000 </r>
       <r>    2.1288    1.0000 </r>
       <r>    2.1288    1.0000 </r>
       <r>    2.2075    1.0000 </r>
       <r>    2.2075    1.0000 </r>
       <r>    4.9463    0.0000 </r>
       <r>    4.9463    0.0000 </r>
       <r>    6.0216    0.0000 </r>
       <r>    6.0216    0.0000 </r>
       <r>    7.7429    0.0000 </r>
       <r>    7.7429    0.0000 </r>
       <r>    7.7605    0.0000 </r>
       <r>    7.7605    0.0000 </r>
       <r>   10.1259    0.0000 </r>
       <r>   10.1259    0.0000 </r>
       <r>   11.5680    0.0000 </r>
       <r>   11.5680    0.0000 </r>
       <r>   13.0955    0.0000 </r>
       <r>   13.0955    0.0000 </r>
       <r>   14.8949    0.0000 </r>
       <r>   14.8960    0.0000 </r>
      </set>
      <set comment="kpoint 31">
       <r>   -8.6234    1.0000 </r>
       <r>   -8.6234    1.0000 </r>
       <r>   -0.1694    1.0000 </r>
       <r>   -0.1694    1.0000 </r>
       <r>    1.9366    1.0000 </r>
       <r>    1.9366    1.0000 </r>
       <r>    2.0062    1.0000 </r>
       <r>    2.0062    1.0000 </r>
       <r>    4.7901    0.0000 </r>
       <r>    4.7901    0.0000 </r>
       <r>    6.1588    0.0000 </r>
       <r>    6.1588    0.0000 </r>
       <r>    8.0861    0.0000 </r>
       <r>    8.0861    0.0000 </r>
       <r>    8.0922    0.0000 </r>
       <r>    8.0922    0.0000 </r>
       <r>   10.0100    0.0000 </r>
       <r>   10.0100    0.0000 </r>
       <r>   11.9794    0.0000 </r>
       <r>   11.9794    0.0000 </r>
       <r>   13.2156    0.0000 </r>
       <r>   13.2156    0.0000 </r>
       <r>   15.1391    0.0000 </r>
       <r>   15.1419    0.0000 </r>
      </set>
      <set comment="kpoint 32">
       <r>   -8.4935    1.0000 </r>
       <r>   -8.4935    1.0000 </r>
       <r>   -0.5480    1.0000 </r>
       <r>   -0.5480    1.0000 </r>
       <r>    1.7516    1.0000 </r>
       <r>    1.7516    1.0000 </r>
       <r>    1.8133    1.0000 </r>
       <r>    1.8133    1.0000 </r>
       <r>    4.6427    0.0000 </r>
       <r>    4.6427    0.0000 </r>
       <r>    6.2062    0.0000 </r>
       <r>    6.2062    0.0000 </r>
       <r>    8.4314    0.0000 </r>
       <r>    8.4314    0.0000 </r>
       <r>    8.4364    0.0000 </r>
       <r>    8.4364    0.0000 </r>
       <r>   10.0058    0.0000 </r>
       <r>   10.0058    0.0000 </r>
       <r>   12.4069    0.0000 </r>
       <r>   12.4069    0.0000 </r>
       <r>   13.3500    0.0000 </r>
       <r>   13.3500    0.0000 </r>
       <r>   15.4136    0.0000 </r>
       <r>   15.4137    0.0000 </r>
      </set>
      <set comment="kpoint 33">
       <r>   -8.3503    1.0000 </r>
       <r>   -8.3503    1.0000 </r>
       <r>   -0.9237    1.0000 </r>
       <r>   -0.9237    1.0000 </r>
       <r>    1.5754    1.0000 </r>
       <r>    1.5754    1.0000 </r>
       <r>    1.6301    1.0000 </r>
       <r>    1.6301    1.0000 </r>
       <r>    4.5060    0.0000 </r>
       <r>    4.5060    0.0000 </r>
       <r>    6.1663    0.0000 </r>
       <r>    6.1663    0.0000 </r>
       <r>    8.7763    0.0000 </r>
       <r>    8.7763    0.0000 </r>
       <r>    8.7920    0.0000 </r>
       <r>    8.7920    0.0000 </r>
       <r>   10.1114    0.0000 </r>
       <r>   10.1114    0.0000 </r>
       <r>   12.8460    0.0000 </r>
       <r>   12.8460    0.0000 </r>
       <r>   13.4986    0.0000 </r>
       <r>   13.4986    0.0000 </r>
       <r>   15.7149    0.0000 </r>
       <r>   15.7155    0.0000 </r>
      </set>
      <set comment="kpoint 34">
       <r>   -8.1941    1.0000 </r>
       <r>   -8.1941    1.0000 </r>
       <r>   -1.2962    1.0000 </r>
       <r>   -1.2962    1.0000 </r>
       <r>    1.4092    1.0000 </r>
       <r>    1.4092    1.0000 </r>
       <r>    1.4577    1.0000 </r>
       <r>    1.4577    1.0000 </r>
       <r>    4.3816    0.0000 </r>
       <r>    4.3816    0.0000 </r>
       <r>    6.0555    0.0000 </r>
       <r>    6.0555    0.0000 </r>
       <r>    9.1256    0.0000 </r>
       <r>    9.1256    0.0000 </r>
       <r>    9.1513    0.0000 </r>
       <r>    9.1513    0.0000 </r>
       <r>   10.3102    0.0000 </r>
       <r>   10.3102    0.0000 </r>
       <r>   13.2913    0.0000 </r>
       <r>   13.2913    0.0000 </r>
       <r>   13.6614    0.0000 </r>
       <r>   13.6614    0.0000 </r>
       <r>   16.0424    0.0000 </r>
       <r>   16.0471    0.0000 </r>
      </set>
      <set comment="kpoint 35">
       <r>   -8.0250    1.0000 </r>
       <r>   -8.0250    1.0000 </r>
       <r>   -1.6653    1.0000 </r>
       <r>   -1.6653    1.0000 </r>
       <r>    1.2541    1.0000 </r>
       <r>    1.2541    1.0000 </r>
       <r>    1.2969    1.0000 </r>
       <r>    1.2969    1.0000 </r>
       <r>    4.2706    0.0000 </r>
       <r>    4.2706    0.0000 </r>
       <r>    5.8959    0.0000 </r>
       <r>    5.8959    0.0000 </r>
       <r>    9.4782    0.0000 </r>
       <r>    9.4782    0.0000 </r>
       <r>    9.5130    0.0000 </r>
       <r>    9.5130    0.0000 </r>
       <r>   10.5797    0.0000 </r>
       <r>   10.5797    0.0000 </r>
       <r>   13.7362    0.0000 </r>
       <r>   13.7362    0.0000 </r>
       <r>   13.8385    0.0000 </r>
       <r>   13.8385    0.0000 </r>
       <r>   16.3999    0.0000 </r>
       <r>   16.4046    0.0000 </r>
      </set>
      <set comment="kpoint 36">
       <r>   -7.8431    1.0000 </r>
       <r>   -7.8431    1.0000 </r>
       <r>   -2.0307    1.0000 </r>
       <r>   -2.0307    1.0000 </r>
       <r>    1.1108    1.0000 </r>
       <r>    1.1108    1.0000 </r>
       <r>    1.1485    1.0000 </r>
       <r>    1.1485    1.0000 </r>
       <r>    4.1739    0.0000 </r>
       <r>    4.1739    0.0000 </r>
       <r>    5.7080    0.0000 </r>
       <r>    5.7080    0.0000 </r>
       <r>    9.8330    0.0000 </r>
       <r>    9.8330    0.0000 </r>
       <r>    9.8761    0.0000 </r>
       <r>    9.8761    0.0000 </r>
       <r>   10.8988    0.0000 </r>
       <r>   10.8988    0.0000 </r>
       <r>   14.0294    0.0000 </r>
       <r>   14.0294    0.0000 </r>
       <r>   14.1725    0.0000 </r>
       <r>   14.1725    0.0000 </r>
       <r>   16.7817    0.0000 </r>
       <r>   16.7924    0.0000 </r>
      </set>
      <set comment="kpoint 37">
       <r>   -7.6487    1.0000 </r>
       <r>   -7.6487    1.0000 </r>
       <r>   -2.3920    1.0000 </r>
       <r>   -2.3920    1.0000 </r>
       <r>    0.9798    1.0000 </r>
       <r>    0.9798    1.0000 </r>
       <r>    1.0128    1.0000 </r>
       <r>    1.0128    1.0000 </r>
       <r>    4.0923    0.0000 </r>
       <r>    4.0923    0.0000 </r>
       <r>    5.5071    0.0000 </r>
       <r>    5.5071    0.0000 </r>
       <r>   10.1888    0.0000 </r>
       <r>   10.1888    0.0000 </r>
       <r>   10.2390    0.0000 </r>
       <r>   10.2390    0.0000 </r>
       <r>   11.2514    0.0000 </r>
       <r>   11.2514    0.0000 </r>
       <r>   14.2349    0.0000 </r>
       <r>   14.2349    0.0000 </r>
       <r>   14.5870    0.0000 </r>
       <r>   14.5870    0.0000 </r>
       <r>   17.1898    0.0000 </r>
       <r>   17.1973    0.0000 </r>
      </set>
      <set comment="kpoint 38">
       <r>   -7.4420    1.0000 </r>
       <r>   -7.4420    1.0000 </r>
       <r>   -2.7487    1.0000 </r>
       <r>   -2.7487    1.0000 </r>
       <r>    0.8617    1.0000 </r>
       <r>    0.8617    1.0000 </r>
       <r>    0.8903    1.0000 </r>
       <r>    0.8903    1.0000 </r>
       <r>    4.0263    0.0000 </r>
       <r>    4.0263    0.0000 </r>
       <r>    5.3041    0.0000 </r>
       <r>    5.3041    0.0000 </r>
       <r>   10.5443    0.0000 </r>
       <r>   10.5443    0.0000 </r>
       <r>   10.6005    0.0000 </r>
       <r>   10.6005    0.0000 </r>
       <r>   11.6258    0.0000 </r>
       <r>   11.6258    0.0000 </r>
       <r>   14.4546    0.0000 </r>
       <r>   14.4546    0.0000 </r>
       <r>   14.9630    0.0000 </r>
       <r>   14.9630    0.0000 </r>
       <r>   17.6067    0.0000 </r>
       <r>   17.6125    0.0000 </r>
      </set>
      <set comment="kpoint 39">
       <r>   -7.2233    1.0000 </r>
       <r>   -7.2233    1.0000 </r>
       <r>   -3.1005    1.0000 </r>
       <r>   -3.1005    1.0000 </r>
       <r>    0.7569    1.0000 </r>
       <r>    0.7569    1.0000 </r>
       <r>    0.7815    1.0000 </r>
       <r>    0.7815    1.0000 </r>
       <r>    3.9766    0.0000 </r>
       <r>    3.9766    0.0000 </r>
       <r>    5.1061    0.0000 </r>
       <r>    5.1061    0.0000 </r>
       <r>   10.8974    0.0000 </r>
       <r>   10.8974    0.0000 </r>
       <r>   10.9583    0.0000 </r>
       <r>   10.9583    0.0000 </r>
       <r>   12.0139    0.0000 </r>
       <r>   12.0139    0.0000 </r>
       <r>   14.6886    0.0000 </r>
       <r>   14.6886    0.0000 </r>
       <r>   15.2776    0.0000 </r>
       <r>   15.2776    0.0000 </r>
       <r>   17.7960    0.0000 </r>
       <r>   17.8325    0.0000 </r>
      </set>
      <set comment="kpoint 40">
       <r>   -6.9928    1.0000 </r>
       <r>   -6.9928    1.0000 </r>
       <r>   -3.4468    1.0000 </r>
       <r>   -3.4468    1.0000 </r>
       <r>    0.6658    1.0000 </r>
       <r>    0.6658    1.0000 </r>
       <r>    0.6864    1.0000 </r>
       <r>    0.6864    1.0000 </r>
       <r>    3.9435    0.0000 </r>
       <r>    3.9435    0.0000 </r>
       <r>    4.9178    0.0000 </r>
       <r>    4.9178    0.0000 </r>
       <r>   11.2453    0.0000 </r>
       <r>   11.2453    0.0000 </r>
       <r>   11.3093    0.0000 </r>
       <r>   11.3093    0.0000 </r>
       <r>   12.4096    0.0000 </r>
       <r>   12.4096    0.0000 </r>
       <r>   14.9368    0.0000 </r>
       <r>   14.9368    0.0000 </r>
       <r>   15.5036    0.0000 </r>
       <r>   15.5036    0.0000 </r>
       <r>   17.4233    0.0000 </r>
       <r>   17.4753    0.0000 </r>
      </set>
      <set comment="kpoint 41">
       <r>   -6.7508    1.0000 </r>
       <r>   -6.7508    1.0000 </r>
       <r>   -3.7872    1.0000 </r>
       <r>   -3.7872    1.0000 </r>
       <r>    0.5884    1.0000 </r>
       <r>    0.5884    1.0000 </r>
       <r>    0.6054    1.0000 </r>
       <r>    0.6054    1.0000 </r>
       <r>    3.9274    0.0000 </r>
       <r>    3.9274    0.0000 </r>
       <r>    4.7425    0.0000 </r>
       <r>    4.7425    0.0000 </r>
       <r>   11.5836    0.0000 </r>
       <r>   11.5836    0.0000 </r>
       <r>   11.6487    0.0000 </r>
       <r>   11.6487    0.0000 </r>
       <r>   12.8084    0.0000 </r>
       <r>   12.8084    0.0000 </r>
       <r>   15.1993    0.0000 </r>
       <r>   15.1993    0.0000 </r>
       <r>   15.6176    0.0000 </r>
       <r>   15.6178    0.0000 </r>
       <r>   17.0186    0.0000 </r>
       <r>   17.0855    0.0000 </r>
      </set>
      <set comment="kpoint 42">
       <r>   -6.4977    1.0000 </r>
       <r>   -6.4977    1.0000 </r>
       <r>   -4.1212    1.0000 </r>
       <r>   -4.1212    1.0000 </r>
       <r>    0.5252    1.0000 </r>
       <r>    0.5252    1.0000 </r>
       <r>    0.5386    1.0000 </r>
       <r>    0.5386    1.0000 </r>
       <r>    3.9286    0.0000 </r>
       <r>    3.9286    0.0000 </r>
       <r>    4.5822    0.0000 </r>
       <r>    4.5822    0.0000 </r>
       <r>   11.9053    0.0000 </r>
       <r>   11.9053    0.0000 </r>
       <r>   11.9686    0.0000 </r>
       <r>   11.9686    0.0000 </r>
       <r>   13.2065    0.0000 </r>
       <r>   13.2065    0.0000 </r>
       <r>   15.4761    0.0000 </r>
       <r>   15.4761    0.0000 </r>
       <r>   15.6101    0.0000 </r>
       <r>   15.6103    0.0000 </r>
       <r>   16.6290    0.0000 </r>
       <r>   16.6763    0.0000 </r>
      </set>
      <set comment="kpoint 43">
       <r>   -6.2338    1.0000 </r>
       <r>   -6.2338    1.0000 </r>
       <r>   -4.4481    1.0000 </r>
       <r>   -4.4481    1.0000 </r>
       <r>    0.4762    1.0000 </r>
       <r>    0.4762    1.0000 </r>
       <r>    0.4861    1.0000 </r>
       <r>    0.4861    1.0000 </r>
       <r>    3.9475    0.0000 </r>
       <r>    3.9475    0.0000 </r>
       <r>    4.4383    0.0000 </r>
       <r>    4.4383    0.0000 </r>
       <r>   12.1988    0.0000 </r>
       <r>   12.1988    0.0000 </r>
       <r>   12.2561    0.0000 </r>
       <r>   12.2561    0.0000 </r>
       <r>   13.5998    0.0000 </r>
       <r>   13.5998    0.0000 </r>
       <r>   15.4920    0.0000 </r>
       <r>   15.4939    0.0000 </r>
       <r>   15.7674    0.0000 </r>
       <r>   15.7699    0.0000 </r>
       <r>   16.2935    0.0000 </r>
       <r>   16.3288    0.0000 </r>
      </set>
      <set comment="kpoint 44">
       <r>   -5.9596    1.0000 </r>
       <r>   -5.9596    1.0000 </r>
       <r>   -4.7675    1.0000 </r>
       <r>   -4.7675    1.0000 </r>
       <r>    0.4415    1.0000 </r>
       <r>    0.4415    1.0000 </r>
       <r>    0.4481    1.0000 </r>
       <r>    0.4481    1.0000 </r>
       <r>    3.9842    0.0000 </r>
       <r>    3.9842    0.0000 </r>
       <r>    4.3116    0.0000 </r>
       <r>    4.3116    0.0000 </r>
       <r>   12.4459    0.0000 </r>
       <r>   12.4459    0.0000 </r>
       <r>   12.4911    0.0000 </r>
       <r>   12.4911    0.0000 </r>
       <r>   13.9842    0.0000 </r>
       <r>   13.9842    0.0000 </r>
       <r>   15.2865    0.0000 </r>
       <r>   15.2866    0.0000 </r>
       <r>   16.0129    0.0000 </r>
       <r>   16.0166    0.0000 </r>
       <r>   16.0619    0.0000 </r>
       <r>   16.0715    0.0000 </r>
      </set>
      <set comment="kpoint 45">
       <r>   -5.6754    1.0000 </r>
       <r>   -5.6754    1.0000 </r>
       <r>   -5.0788    1.0000 </r>
       <r>   -5.0788    1.0000 </r>
       <r>    0.4214    1.0000 </r>
       <r>    0.4214    1.0000 </r>
       <r>    0.4247    1.0000 </r>
       <r>    0.4247    1.0000 </r>
       <r>    4.0389    0.0000 </r>
       <r>    4.0389    0.0000 </r>
       <r>    4.2027    0.0000 </r>
       <r>    4.2027    0.0000 </r>
       <r>   12.6201    0.0000 </r>
       <r>   12.6201    0.0000 </r>
       <r>   12.6457    0.0000 </r>
       <r>   12.6458    0.0000 </r>
       <r>   14.3542    0.0000 </r>
       <r>   14.3542    0.0000 </r>
       <r>   15.0173    0.0000 </r>
       <r>   15.0173    0.0000 </r>
       <r>   15.8358    0.0000 </r>
       <r>   15.8359    0.0000 </r>
       <r>   15.8614    0.0000 </r>
       <r>   15.8614    0.0000 </r>
      </set>
      <set comment="kpoint 46">
       <r>   -5.3816    1.0000 </r>
       <r>   -5.3816    1.0000 </r>
       <r>   -5.3816    1.0000 </r>
       <r>   -5.3816    1.0000 </r>
       <r>    0.4158    1.0000 </r>
       <r>    0.4158    1.0000 </r>
       <r>    0.4158    1.0000 </r>
       <r>    0.4158    1.0000 </r>
       <r>    4.1117    0.0000 </r>
       <r>    4.1117    0.0000 </r>
       <r>    4.1117    0.0000 </r>
       <r>    4.1117    0.0000 </r>
       <r>   12.6921    0.0000 </r>
       <r>   12.6921    0.0000 </r>
       <r>   12.6921    0.0000 </r>
       <r>   12.6921    0.0000 </r>
       <r>   14.7020    0.0000 </r>
       <r>   14.7020    0.0000 </r>
       <r>   14.7020    0.0000 </r>
       <r>   14.7020    0.0000 </r>
       <r>   15.7808    0.0000 </r>
       <r>   15.7808    0.0000 </r>
       <r>   15.7808    0.0000 </r>
       <r>   15.7808    0.0000 </r>
      </set>
      <set comment="kpoint 47">
       <r>   -5.3875    1.0000 </r>
       <r>   -5.3875    1.0000 </r>
       <r>   -5.3724    1.0000 </r>
       <r>   -5.3724    1.0000 </r>
       <r>    0.3665    1.0000 </r>
       <r>    0.3665    1.0000 </r>
       <r>    0.4237    1.0000 </r>
       <r>    0.4237    1.0000 </r>
       <r>    4.1177    0.0000 </r>
       <r>    4.1177    0.0000 </r>
       <r>    4.1913    0.0000 </r>
       <r>    4.1913    0.0000 </r>
       <r>   12.6007    0.0000 </r>
       <r>   12.6007    0.0000 </r>
       <r>   12.6494    0.0000 </r>
       <r>   12.6495    0.0000 </r>
       <r>   14.4857    0.0000 </r>
       <r>   14.4857    0.0000 </r>
       <r>   14.7862    0.0000 </r>
       <r>   14.7862    0.0000 </r>
       <r>   15.6068    0.0000 </r>
       <r>   15.6069    0.0000 </r>
       <r>   16.0008    0.0000 </r>
       <r>   16.0008    0.0000 </r>
      </set>
      <set comment="kpoint 48">
       <r>   -5.4049    1.0000 </r>
       <r>   -5.4049    1.0000 </r>
       <r>   -5.3451    1.0000 </r>
       <r>   -5.3451    1.0000 </r>
       <r>    0.2346    1.0000 </r>
       <r>    0.2346    1.0000 </r>
       <r>    0.4446    1.0000 </r>
       <r>    0.4446    1.0000 </r>
       <r>    4.1374    0.0000 </r>
       <r>    4.1374    0.0000 </r>
       <r>    4.4157    0.0000 </r>
       <r>    4.4157    0.0000 </r>
       <r>   12.3877    0.0000 </r>
       <r>   12.3877    0.0000 </r>
       <r>   12.5000    0.0000 </r>
       <r>   12.5000    0.0000 </r>
       <r>   14.0684    0.0000 </r>
       <r>   14.0684    0.0000 </r>
       <r>   14.9927    0.0000 </r>
       <r>   14.9927    0.0000 </r>
       <r>   15.2577    0.0000 </r>
       <r>   15.2577    0.0000 </r>
       <r>   16.4414    0.0000 </r>
       <r>   16.4415    0.0000 </r>
      </set>
      <set comment="kpoint 49">
       <r>   -5.4354    1.0000 </r>
       <r>   -5.4354    1.0000 </r>
       <r>   -5.2997    1.0000 </r>
       <r>   -5.2997    1.0000 </r>
       <r>    0.0489    1.0000 </r>
       <r>    0.0489    1.0000 </r>
       <r>    0.4792    1.0000 </r>
       <r>    0.4792    1.0000 </r>
       <r>    4.1701    0.0000 </r>
       <r>    4.1701    0.0000 </r>
       <r>    4.7564    0.0000 </r>
       <r>    4.7564    0.0000 </r>
       <r>   12.1007    0.0000 </r>
       <r>   12.1007    0.0000 </r>
       <r>   12.2723    0.0000 </r>
       <r>   12.2723    0.0000 </r>
       <r>   13.6066    0.0000 </r>
       <r>   13.6066    0.0000 </r>
       <r>   14.8656    0.0000 </r>
       <r>   14.8656    0.0000 </r>
       <r>   15.2721    0.0000 </r>
       <r>   15.2721    0.0000 </r>
       <r>   16.9357    0.0000 </r>
       <r>   16.9385    0.0000 </r>
      </set>
      <set comment="kpoint 50">
       <r>   -5.4804    1.0000 </r>
       <r>   -5.4804    1.0000 </r>
       <r>   -5.2361    1.0000 </r>
       <r>   -5.2361    1.0000 </r>
       <r>   -0.1597    1.0000 </r>
       <r>   -0.1597    1.0000 </r>
       <r>    0.5274    1.0000 </r>
       <r>    0.5274    1.0000 </r>
       <r>    4.2154    0.0000 </r>
       <r>    4.2154    0.0000 </r>
       <r>    5.1841    0.0000 </r>
       <r>    5.1841    0.0000 </r>
       <r>   11.7770    0.0000 </r>
       <r>   11.7770    0.0000 </r>
       <r>   11.9910    0.0000 </r>
       <r>   11.9910    0.0000 </r>
       <r>   13.1391    0.0000 </r>
       <r>   13.1391    0.0000 </r>
       <r>   14.4685    0.0000 </r>
       <r>   14.4685    0.0000 </r>
       <r>   15.5809    0.0000 </r>
       <r>   15.5809    0.0000 </r>
       <r>   17.4375    0.0000 </r>
       <r>   17.4656    0.0000 </r>
      </set>
      <set comment="kpoint 51">
       <r>   -5.5423    1.0000 </r>
       <r>   -5.5423    1.0000 </r>
       <r>   -5.1544    1.0000 </r>
       <r>   -5.1544    1.0000 </r>
       <r>   -0.3669    1.0000 </r>
       <r>   -0.3669    1.0000 </r>
       <r>    0.5889    1.0000 </r>
       <r>    0.5889    1.0000 </r>
       <r>    4.2730    0.0000 </r>
       <r>    4.2730    0.0000 </r>
       <r>    5.6759    0.0000 </r>
       <r>    5.6759    0.0000 </r>
       <r>   11.4380    0.0000 </r>
       <r>   11.4380    0.0000 </r>
       <r>   11.6760    0.0000 </r>
       <r>   11.6760    0.0000 </r>
       <r>   12.6778    0.0000 </r>
       <r>   12.6778    0.0000 </r>
       <r>   14.0765    0.0000 </r>
       <r>   14.0765    0.0000 </r>
       <r>   15.8944    0.0000 </r>
       <r>   15.8944    0.0000 </r>
       <r>   17.8301    0.0000 </r>
       <r>   17.8405    0.0000 </r>
      </set>
      <set comment="kpoint 52">
       <r>   -5.6230    1.0000 </r>
       <r>   -5.6230    1.0000 </r>
       <r>   -5.0545    1.0000 </r>
       <r>   -5.0545    1.0000 </r>
       <r>   -0.5556    1.0000 </r>
       <r>   -0.5556    1.0000 </r>
       <r>    0.6634    1.0000 </r>
       <r>    0.6634    1.0000 </r>
       <r>    4.3421    0.0000 </r>
       <r>    4.3421    0.0000 </r>
       <r>    6.2158    0.0000 </r>
       <r>    6.2158    0.0000 </r>
       <r>   11.0958    0.0000 </r>
       <r>   11.0958    0.0000 </r>
       <r>   11.3414    0.0000 </r>
       <r>   11.3414    0.0000 </r>
       <r>   12.2275    0.0000 </r>
       <r>   12.2275    0.0000 </r>
       <r>   13.6949    0.0000 </r>
       <r>   13.6949    0.0000 </r>
       <r>   16.1931    0.0000 </r>
       <r>   16.1931    0.0000 </r>
       <r>   18.1300    0.0000 </r>
       <r>   18.1859    0.0000 </r>
      </set>
      <set comment="kpoint 53">
       <r>   -5.7243    1.0000 </r>
       <r>   -5.7243    1.0000 </r>
       <r>   -4.9364    1.0000 </r>
       <r>   -4.9364    1.0000 </r>
       <r>   -0.7141    1.0000 </r>
       <r>   -0.7141    1.0000 </r>
       <r>    0.7503    1.0000 </r>
       <r>    0.7503    1.0000 </r>
       <r>    4.4220    0.0000 </r>
       <r>    4.4220    0.0000 </r>
       <r>    6.7921    0.0000 </r>
       <r>    6.7921    0.0000 </r>
       <r>   10.7577    0.0000 </r>
       <r>   10.7577    0.0000 </r>
       <r>   10.9972    0.0000 </r>
       <r>   10.9972    0.0000 </r>
       <r>   11.7914    0.0000 </r>
       <r>   11.7914    0.0000 </r>
       <r>   13.3268    0.0000 </r>
       <r>   13.3268    0.0000 </r>
       <r>   16.4567    0.0000 </r>
       <r>   16.4567    0.0000 </r>
       <r>   18.0991    0.0000 </r>
       <r>   18.1059    0.0000 </r>
      </set>
      <set comment="kpoint 54">
       <r>   -5.8470    1.0000 </r>
       <r>   -5.8470    1.0000 </r>
       <r>   -4.8002    1.0000 </r>
       <r>   -4.8002    1.0000 </r>
       <r>   -0.8351    1.0000 </r>
       <r>   -0.8351    1.0000 </r>
       <r>    0.8491    1.0000 </r>
       <r>    0.8491    1.0000 </r>
       <r>    4.5115    0.0000 </r>
       <r>    4.5115    0.0000 </r>
       <r>    7.3957    0.0000 </r>
       <r>    7.3957    0.0000 </r>
       <r>   10.4290    0.0000 </r>
       <r>   10.4290    0.0000 </r>
       <r>   10.6502    0.0000 </r>
       <r>   10.6502    0.0000 </r>
       <r>   11.3723    0.0000 </r>
       <r>   11.3723    0.0000 </r>
       <r>   12.9746    0.0000 </r>
       <r>   12.9746    0.0000 </r>
       <r>   16.6576    0.0000 </r>
       <r>   16.6576    0.0000 </r>
       <r>   17.8495    0.0000 </r>
       <r>   17.8495    0.0000 </r>
      </set>
      <set comment="kpoint 55">
       <r>   -5.8470    1.0000 </r>
       <r>   -5.8470    1.0000 </r>
       <r>   -4.8002    1.0000 </r>
       <r>   -4.8002    1.0000 </r>
       <r>   -0.8351    1.0000 </r>
       <r>   -0.8351    1.0000 </r>
       <r>    0.8491    1.0000 </r>
       <r>    0.8491    1.0000 </r>
       <r>    4.5115    0.0000 </r>
       <r>    4.5115    0.0000 </r>
       <r>    7.3957    0.0000 </r>
       <r>    7.3957    0.0000 </r>
       <r>   10.4290    0.0000 </r>
       <r>   10.4290    0.0000 </r>
       <r>   10.6502    0.0000 </r>
       <r>   10.6502    0.0000 </r>
       <r>   11.3723    0.0000 </r>
       <r>   11.3723    0.0000 </r>
       <r>   12.9746    0.0000 </r>
       <r>   12.9746    0.0000 </r>
       <r>   16.6576    0.0000 </r>
       <r>   16.6576    0.0000 </r>
       <r>   17.8495    0.0000 </r>
       <r>   17.8495    0.0000 </r>
      </set>
      <set comment="kpoint 56">
       <r>   -5.9735    1.0000 </r>
       <r>   -5.9735    1.0000 </r>
       <r>   -4.6640    1.0000 </r>
       <r>   -4.6640    1.0000 </r>
       <r>   -0.9078    1.0000 </r>
       <r>   -0.9078    1.0000 </r>
       <r>    0.9465    1.0000 </r>
       <r>    0.9465    1.0000 </r>
       <r>    4.5982    0.0000 </r>
       <r>    4.5982    0.0000 </r>
       <r>    7.9471    0.0000 </r>
       <r>    7.9471    0.0000 </r>
       <r>   10.1480    0.0000 </r>
       <r>   10.1480    0.0000 </r>
       <r>   10.3436    0.0000 </r>
       <r>   10.3436    0.0000 </r>
       <r>   11.0176    0.0000 </r>
       <r>   11.0176    0.0000 </r>
       <r>   12.6762    0.0000 </r>
       <r>   12.6762    0.0000 </r>
       <r>   16.7536    0.0000 </r>
       <r>   16.7536    0.0000 </r>
       <r>   17.5621    0.0000 </r>
       <r>   17.5622    0.0000 </r>
      </set>
      <set comment="kpoint 57">
       <r>   -6.1153    1.0000 </r>
       <r>   -6.1153    1.0000 </r>
       <r>   -4.5134    1.0000 </r>
       <r>   -4.5134    1.0000 </r>
       <r>   -0.9467    1.0000 </r>
       <r>   -0.9467    1.0000 </r>
       <r>    1.0521    1.0000 </r>
       <r>    1.0521    1.0000 </r>
       <r>    4.6901    0.0000 </r>
       <r>    4.6901    0.0000 </r>
       <r>    8.5008    0.0000 </r>
       <r>    8.5008    0.0000 </r>
       <r>    9.8806    0.0000 </r>
       <r>    9.8806    0.0000 </r>
       <r>   10.0413    0.0000 </r>
       <r>   10.0413    0.0000 </r>
       <r>   10.6874    0.0000 </r>
       <r>   10.6874    0.0000 </r>
       <r>   12.3928    0.0000 </r>
       <r>   12.3928    0.0000 </r>
       <r>   16.7484    0.0000 </r>
       <r>   16.7484    0.0000 </r>
       <r>   17.2586    0.0000 </r>
       <r>   17.2587    0.0000 </r>
      </set>
      <set comment="kpoint 58">
       <r>   -6.2706    1.0000 </r>
       <r>   -6.2706    1.0000 </r>
       <r>   -4.3487    1.0000 </r>
       <r>   -4.3487    1.0000 </r>
       <r>   -0.9520    1.0000 </r>
       <r>   -0.9520    1.0000 </r>
       <r>    1.1654    1.0000 </r>
       <r>    1.1654    1.0000 </r>
       <r>    4.7856    0.0000 </r>
       <r>    4.7856    0.0000 </r>
       <r>    9.0238    0.0000 </r>
       <r>    9.0238    0.0000 </r>
       <r>    9.6326    0.0000 </r>
       <r>    9.6326    0.0000 </r>
       <r>    9.7461    0.0000 </r>
       <r>    9.7461    0.0000 </r>
       <r>   10.4071    0.0000 </r>
       <r>   10.4071    0.0000 </r>
       <r>   12.1255    0.0000 </r>
       <r>   12.1255    0.0000 </r>
       <r>   16.6424    0.0000 </r>
       <r>   16.6424    0.0000 </r>
       <r>   16.9563    0.0000 </r>
       <r>   16.9563    0.0000 </r>
      </set>
      <set comment="kpoint 59">
       <r>   -6.4368    1.0000 </r>
       <r>   -6.4368    1.0000 </r>
       <r>   -4.1696    1.0000 </r>
       <r>   -4.1696    1.0000 </r>
       <r>   -0.9251    1.0000 </r>
       <r>   -0.9251    1.0000 </r>
       <r>    1.2857    1.0000 </r>
       <r>    1.2857    1.0000 </r>
       <r>    4.8829    0.0000 </r>
       <r>    4.8829    0.0000 </r>
       <r>    9.3107    0.0000 </r>
       <r>    9.3107    0.0000 </r>
       <r>    9.4613    0.0000 </r>
       <r>    9.4613    0.0000 </r>
       <r>    9.4848    0.0000 </r>
       <r>    9.4848    0.0000 </r>
       <r>   10.2978    0.0000 </r>
       <r>   10.2978    0.0000 </r>
       <r>   11.8753    0.0000 </r>
       <r>   11.8753    0.0000 </r>
       <r>   16.4601    0.0000 </r>
       <r>   16.4602    0.0000 </r>
       <r>   16.6643    0.0000 </r>
       <r>   16.6644    0.0000 </r>
      </set>
      <set comment="kpoint 60">
       <r>   -6.6115    1.0000 </r>
       <r>   -6.6115    1.0000 </r>
       <r>   -3.9764    1.0000 </r>
       <r>   -3.9764    1.0000 </r>
       <r>   -0.8678    1.0000 </r>
       <r>   -0.8678    1.0000 </r>
       <r>    1.4121    1.0000 </r>
       <r>    1.4121    1.0000 </r>
       <r>    4.9794    0.0000 </r>
       <r>    4.9794    0.0000 </r>
       <r>    9.1217    0.0000 </r>
[...]
       <r>    20.3395     0.0000     0.0000 </r>
       <r>    20.4845     0.0000     0.0000 </r>
       <r>    20.6296     0.0000     0.0000 </r>
       <r>    20.7747     0.0000     0.0000 </r>
       <r>    20.9197     0.0000     0.0000 </r>
       <r>    21.0648     0.0000     0.0000 </r>
       <r>    21.2099     0.0000     0.0000 </r>
       <r>    21.3550     0.0000     0.0000 </r>
       <r>    21.5000     0.0000     0.0000 </r>
       <r>    21.6451     0.0000     0.0000 </r>
       <r>    21.7902     0.0000     0.0000 </r>
       <r>    21.9352     0.0000     0.0000 </r>
       <r>    22.0803     0.0000     0.0000 </r>
       <r>    22.2254     0.0000     0.0000 </r>
       <r>    22.3704     0.0000     0.0000 </r>
       <r>    22.5155     0.0000     0.0000 </r>
       <r>    22.6606     0.0000     0.0000 </r>
       <r>    22.8057     0.0000     0.0000 </r>
       <r>    22.9507     0.0000     0.0000 </r>
       <r>    23.0958     0.0000     0.0000 </r>
       <r>    23.2409     0.0000     0.0000 </r>
       <r>    23.3859     0.0000     0.0000 </r>
       <r>    23.5310     0.0000     0.0000 </r>
       <r>    23.6761     0.0000     0.0000 </r>
       <r>    23.8211     0.0000     0.0000 </r>
       <r>    23.9662     0.0000     0.0000 </r>
       <r>    24.1113     0.0000     0.0000 </r>
       <r>    24.2564     0.0000     0.0000 </r>
       <r>    24.4014     0.0000     0.0000 </r>
       <r>    24.5465     0.0000     0.0000 </r>
       <r>    24.6916     0.0000     0.0000 </r>
       <r>    24.8366     0.0000     0.0000 </r>
       <r>    24.9817     0.0000     0.0000 </r>
       <r>    25.1268     0.0000     0.0000 </r>
       <r>    25.2718     0.0000     0.0000 </r>
       <r>    25.4169     0.0000     0.0000 </r>
       <r>    25.5620     0.0000     0.0000 </r>
       <r>    25.7071     0.0000     0.0000 </r>
       <r>    25.8521     0.0000     0.0000 </r>
       <r>    25.9972     0.0000     0.0000 </r>
       <r>    26.1423     0.0000     0.0000 </r>
       <r>    26.2873     0.0000     0.0000 </r>
       <r>    26.4324     0.0000     0.0000 </r>
       <r>    26.5775     0.0000     0.0000 </r>
       <r>    26.7225     0.0000     0.0000 </r>
       <r>    26.8676     0.0000     0.0000 </r>
       <r>    27.0127     0.0000     0.0000 </r>
       <r>    27.1578     0.0000     0.0000 </r>
       <r>    27.3028     0.0000     0.0000 </r>
       <r>    27.4479     0.0000     0.0000 </r>
       <r>    27.5930     0.0000     0.0000 </r>
       <r>    27.7380     0.0000     0.0000 </r>
       <r>    27.8831     0.0000     0.0000 </r>
       <r>    28.0282     0.0000     0.0000 </r>
       <r>    28.1732     0.0000     0.0000 </r>
       <r>    28.3183     0.0000     0.0000 </r>
       <r>    28.4634     0.0000     0.0000 </r>
       <r>    28.6084     0.0000     0.0000 </r>
       <r>    28.7535     0.0000     0.0000 </r>
       <r>    28.8986     0.0000     0.0000 </r>
       <r>    29.0437     0.0000     0.0000 </r>
       <r>    29.1887     0.0000     0.0000 </r>
       <r>    29.3338     0.0000     0.0000 </r>
       <r>    29.4789     0.0000     0.0000 </r>
       <r>    29.6239     0.0000     0.0000 </r>
       <r>    29.7690     0.0000     0.0000 </r>
       <r>    29.9141     0.0000     0.0000 </r>
       <r>    30.0591     0.0000     0.0000 </r>
       <r>    30.2042     0.0000     0.0000 </r>
       <r>    30.3493     0.0000     0.0000 </r>
       <r>    30.4944     0.0000     0.0000 </r>
       <r>    30.6394     0.0000     0.0000 </r>
       <r>    30.7845     0.0000     0.0000 </r>
       <r>    30.9296     0.0000     0.0000 </r>
       <r>    31.0746     0.0000     0.0000 </r>
       <r>    31.2197     0.0000     0.0000 </r>
       <r>    31.3648     0.0000     0.0000 </r>
       <r>    31.5098     0.0000     0.0000 </r>
       <r>    31.6549     0.0000     0.0000 </r>
       <r>    31.8000     0.0000     0.0000 </r>
       <r>    31.9451     0.0000     0.0000 </r>
       <r>    32.0901     0.0000     0.0000 </r>
       <r>    32.2352     0.0000     0.0000 </r>
       <r>    32.3803     0.0000     0.0000 </r>
       <r>    32.5253     0.0000     0.0000 </r>
       <r>    32.6704     0.0000     0.0000 </r>
       <r>    32.8155     0.0000     0.0000 </r>
       <r>    32.9605     0.0000     0.0000 </r>
       <r>    33.1056     0.0000     0.0000 </r>
      </set>
      <set comment="spin 4">
       <r>   -10.4153     0.0000     0.0000 </r>
       <r>   -10.2703     0.0000     0.0000 </r>
       <r>   -10.1252     0.0000     0.0000 </r>
       <r>    -9.9801     0.0000     0.0000 </r>
       <r>    -9.8351     0.0000     0.0000 </r>
       <r>    -9.6900     0.0000     0.0000 </r>
       <r>    -9.5449     0.0000     0.0000 </r>
       <r>    -9.3998     0.0000     0.0000 </r>
       <r>    -9.2548     0.0000     0.0000 </r>
       <r>    -9.1097     0.0000     0.0000 </r>
       <r>    -8.9646     0.0000     0.0000 </r>
       <r>    -8.8196     0.0000     0.0000 </r>
       <r>    -8.6745     0.0000     0.0000 </r>
       <r>    -8.5294     0.0000     0.0000 </r>
       <r>    -8.3844     0.0000     0.0000 </r>
       <r>    -8.2393     0.0000     0.0000 </r>
       <r>    -8.0942     0.0000     0.0000 </r>
       <r>    -7.9491     0.0000     0.0000 </r>
       <r>    -7.8041     0.0000     0.0000 </r>
       <r>    -7.6590     0.0000     0.0000 </r>
       <r>    -7.5139     0.0000     0.0000 </r>
       <r>    -7.3689     0.0000     0.0000 </r>
       <r>    -7.2238     0.0000     0.0000 </r>
       <r>    -7.0787     0.0000     0.0000 </r>
       <r>    -6.9337     0.0000     0.0000 </r>
       <r>    -6.7886     0.0000     0.0000 </r>
       <r>    -6.6435     0.0000     0.0000 </r>
       <r>    -6.4985     0.0000     0.0000 </r>
       <r>    -6.3534     0.0000     0.0000 </r>
       <r>    -6.2083     0.0000     0.0000 </r>
       <r>    -6.0632     0.0000     0.0000 </r>
       <r>    -5.9182     0.0000     0.0000 </r>
       <r>    -5.7731     0.0000     0.0000 </r>
       <r>    -5.6280     0.0000     0.0000 </r>
       <r>    -5.4830     0.0000     0.0000 </r>
       <r>    -5.3379     0.0000     0.0000 </r>
       <r>    -5.1928     0.0000     0.0000 </r>
       <r>    -5.0478     0.0000     0.0000 </r>
       <r>    -4.9027     0.0000     0.0000 </r>
       <r>    -4.7576     0.0000     0.0000 </r>
       <r>    -4.6125     0.0000     0.0000 </r>
       <r>    -4.4675     0.0000     0.0000 </r>
       <r>    -4.3224     0.0000     0.0000 </r>
       <r>    -4.1773     0.0000     0.0000 </r>
       <r>    -4.0323     0.0000     0.0000 </r>
       <r>    -3.8872     0.0000     0.0000 </r>
       <r>    -3.7421     0.0000     0.0000 </r>
       <r>    -3.5971     0.0000     0.0000 </r>
       <r>    -3.4520     0.0000     0.0000 </r>
       <r>    -3.3069     0.0000     0.0000 </r>
       <r>    -3.1618     0.0000     0.0000 </r>
       <r>    -3.0168     0.0000     0.0000 </r>
       <r>    -2.8717     0.0000     0.0000 </r>
       <r>    -2.7266     0.0000     0.0000 </r>
       <r>    -2.5816     0.0000     0.0000 </r>
       <r>    -2.4365     0.0000     0.0000 </r>
       <r>    -2.2914     0.0000     0.0000 </r>
       <r>    -2.1464     0.0000     0.0000 </r>
       <r>    -2.0013     0.0000     0.0000 </r>
       <r>    -1.8562     0.0000     0.0000 </r>
       <r>    -1.7111     0.0000     0.0000 </r>
       <r>    -1.5661     0.0000     0.0000 </r>
       <r>    -1.4210     0.0000     0.0000 </r>
       <r>    -1.2759     0.0000     0.0000 </r>
       <r>    -1.1309     0.0000     0.0000 </r>
       <r>    -0.9858     0.0000     0.0000 </r>
       <r>    -0.8407     0.0000     0.0000 </r>
       <r>    -0.6957     0.0000     0.0000 </r>
       <r>    -0.5506     0.0000     0.0000 </r>
       <r>    -0.4055     0.0000     0.0000 </r>
       <r>    -0.2604     0.0000     0.0000 </r>
       <r>    -0.1154     0.0000     0.0000 </r>
       <r>     0.0297     0.0000     0.0000 </r>
       <r>     0.1748     0.0000     0.0000 </r>
       <r>     0.3198     0.0000     0.0000 </r>
       <r>     0.4649     0.0000     0.0000 </r>
       <r>     0.6100     0.0000     0.0000 </r>
       <r>     0.7550     0.0000     0.0000 </r>
       <r>     0.9001     0.0000     0.0000 </r>
       <r>     1.0452     0.0000     0.0000 </r>
       <r>     1.1903     0.0000     0.0000 </r>
       <r>     1.3353     0.0000     0.0000 </r>
       <r>     1.4804     0.0000     0.0000 </r>
       <r>     1.6255     0.0000     0.0000 </r>
       <r>     1.7705     0.0000     0.0000 </r>
       <r>     1.9156     0.0000     0.0000 </r>
       <r>     2.0607     0.0000     0.0000 </r>
       <r>     2.2057     0.0000     0.0000 </r>
       <r>     2.3508     0.0000     0.0000 </r>
       <r>     2.4959     0.0000     0.0000 </r>
       <r>     2.6409     0.0000     0.0000 </r>
       <r>     2.7860     0.0000     0.0000 </r>
       <r>     2.9311     0.0000     0.0000 </r>
       <r>     3.0762     0.0000     0.0000 </r>
       <r>     3.2212     0.0000     0.0000 </r>
       <r>     3.3663     0.0000     0.0000 </r>
       <r>     3.5114     0.0000     0.0000 </r>
       <r>     3.6564     0.0000     0.0000 </r>
       <r>     3.8015     0.0000     0.0000 </r>
       <r>     3.9466     0.0000     0.0000 </r>
       <r>     4.0916     0.0000     0.0000 </r>
       <r>     4.2367     0.0000     0.0000 </r>
       <r>     4.3818     0.0000     0.0000 </r>
       <r>     4.5269     0.0000     0.0000 </r>
       <r>     4.6719     0.0000     0.0000 </r>
       <r>     4.8170     0.0000     0.0000 </r>
       <r>     4.9621     0.0000     0.0000 </r>
       <r>     5.1071     0.0000     0.0000 </r>
       <r>     5.2522     0.0000     0.0000 </r>
       <r>     5.3973     0.0000     0.0000 </r>
       <r>     5.5423     0.0000     0.0000 </r>
       <r>     5.6874     0.0000     0.0000 </r>
       <r>     5.8325     0.0000     0.0000 </r>
       <r>     5.9776     0.0000     0.0000 </r>
       <r>     6.1226     0.0000     0.0000 </r>
       <r>     6.2677     0.0000     0.0000 </r>
       <r>     6.4128     0.0000     0.0000 </r>
       <r>     6.5578     0.0000     0.0000 </r>
       <r>     6.7029     0.0000     0.0000 </r>
       <r>     6.8480     0.0000     0.0000 </r>
       <r>     6.9930     0.0000     0.0000 </r>
       <r>     7.1381     0.0000     0.0000 </r>
       <r>     7.2832     0.0000     0.0000 </r>
       <r>     7.4283     0.0000     0.0000 </r>
       <r>     7.5733     0.0000     0.0000 </r>
       <r>     7.7184     0.0000     0.0000 </r>
       <r>     7.8635     0.0000     0.0000 </r>
       <r>     8.0085     0.0000     0.0000 </r>
       <r>     8.1536     0.0000     0.0000 </r>
       <r>     8.2987     0.0000     0.0000 </r>
       <r>     8.4437     0.0000     0.0000 </r>
       <r>     8.5888     0.0000     0.0000 </r>
       <r>     8.7339     0.0000     0.0000 </r>
       <r>     8.8790     0.0000     0.0000 </r>
       <r>     9.0240     0.0000     0.0000 </r>
       <r>     9.1691     0.0000     0.0000 </r>
       <r>     9.3142     0.0000     0.0000 </r>
       <r>     9.4592     0.0000     0.0000 </r>
       <r>     9.6043     0.0000     0.0000 </r>
       <r>     9.7494     0.0000     0.0000 </r>
       <r>     9.8944     0.0000     0.0000 </r>
       <r>    10.0395     0.0000     0.0000 </r>
       <r>    10.1846     0.0000     0.0000 </r>
       <r>    10.3297     0.0000     0.0000 </r>
       <r>    10.4747     0.0000     0.0000 </r>
       <r>    10.6198     0.0000     0.0000 </r>
       <r>    10.7649     0.0000     0.0000 </r>
       <r>    10.9099     0.0000     0.0000 </r>
       <r>    11.0550     0.0000     0.0000 </r>
       <r>    11.2001     0.0000     0.0000 </r>
       <r>    11.3451     0.0000     0.0000 </r>
       <r>    11.4902     0.0000     0.0000 </r>
       <r>    11.6353     0.0000     0.0000 </r>
       <r>    11.7803     0.0000     0.0000 </r>
       <r>    11.9254     0.0000     0.0000 </r>
       <r>    12.0705     0.0000     0.0000 </r>
       <r>    12.2156     0.0000     0.0000 </r>
       <r>    12.3606     0.0000     0.0000 </r>
       <r>    12.5057     0.0000     0.0000 </r>
       <r>    12.6508     0.0000     0.0000 </r>
       <r>    12.7958     0.0000     0.0000 </r>
       <r>    12.9409     0.0000     0.0000 </r>
       <r>    13.0860     0.0000     0.0000 </r>
       <r>    13.2310     0.0000     0.0000 </r>
       <r>    13.3761     0.0000     0.0000 </r>
       <r>    13.5212     0.0000     0.0000 </r>
       <r>    13.6663     0.0000     0.0000 </r>
       <r>    13.8113     0.0000     0.0000 </r>
       <r>    13.9564     0.0000     0.0000 </r>
       <r>    14.1015     0.0000     0.0000 </r>
       <r>    14.2465     0.0000     0.0000 </r>
       <r>    14.3916     0.0000     0.0000 </r>
       <r>    14.5367     0.0000     0.0000 </r>
       <r>    14.6817     0.0000     0.0000 </r>
       <r>    14.8268     0.0000     0.0000 </r>
       <r>    14.9719     0.0000     0.0000 </r>
       <r>    15.1170     0.0000     0.0000 </r>
       <r>    15.2620     0.0000     0.0000 </r>
       <r>    15.4071     0.0000     0.0000 </r>
       <r>    15.5522     0.0000     0.0000 </r>
       <r>    15.6972     0.0000     0.0000 </r>
       <r>    15.8423     0.0000     0.0000 </r>
       <r>    15.9874     0.0000     0.0000 </r>
       <r>    16.1324     0.0000     0.0000 </r>
       <r>    16.2775     0.0000     0.0000 </r>
       <r>    16.4226     0.0000     0.0000 </r>
       <r>    16.5677     0.0000     0.0000 </r>
       <r>    16.7127     0.0000     0.0000 </r>
       <r>    16.8578     0.0000     0.0000 </r>
       <r>    17.0029     0.0000     0.0000 </r>
       <r>    17.1479     0.0000     0.0000 </r>
       <r>    17.2930     0.0000     0.0000 </r>
       <r>    17.4381     0.0000     0.0000 </r>
       <r>    17.5831     0.0000     0.0000 </r>
       <r>    17.7282     0.0000     0.0000 </r>
       <r>    17.8733     0.0000     0.0000 </r>
       <r>    18.0184     0.0000     0.0000 </r>
       <r>    18.1634     0.0000     0.0000 </r>
       <r>    18.3085     0.0000     0.0000 </r>
       <r>    18.4536     0.0000     0.0000 </r>
       <r>    18.5986     0.0000     0.0000 </r>
       <r>    18.7437     0.0000     0.0000 </r>
       <r>    18.8888     0.0000     0.0000 </r>
       <r>    19.0338     0.0000     0.0000 </r>
       <r>    19.1789     0.0000     0.0000 </r>
       <r>    19.3240     0.0000     0.0000 </r>
       <r>    19.4690     0.0000     0.0000 </r>
       <r>    19.6141     0.0000     0.0000 </r>
       <r>    19.7592     0.0000     0.0000 </r>
       <r>    19.9043     0.0000     0.0000 </r>
       <r>    20.0493     0.0000     0.0000 </r>
       <r>    20.1944     0.0000     0.0000 </r>
       <r>    20.3395     0.0000     0.0000 </r>
       <r>    20.4845     0.0000     0.0000 </r>
       <r>    20.6296     0.0000     0.0000 </r>
       <r>    20.7747     0.0000     0.0000 </r>
       <r>    20.9197     0.0000     0.0000 </r>
       <r>    21.0648     0.0000     0.0000 </r>
       <r>    21.2099     0.0000     0.0000 </r>
       <r>    21.3550     0.0000     0.0000 </r>
       <r>    21.5000     0.0000     0.0000 </r>
       <r>    21.6451     0.0000     0.0000 </r>
       <r>    21.7902     0.0000     0.0000 </r>
       <r>    21.9352     0.0000     0.0000 </r>
       <r>    22.0803     0.0000     0.0000 </r>
       <r>    22.2254     0.0000     0.0000 </r>
       <r>    22.3704     0.0000     0.0000 </r>
       <r>    22.5155     0.0000     0.0000 </r>
       <r>    22.6606     0.0000     0.0000 </r>
       <r>    22.8057     0.0000     0.0000 </r>
       <r>    22.9507     0.0000     0.0000 </r>
       <r>    23.0958     0.0000     0.0000 </r>
       <r>    23.2409     0.0000     0.0000 </r>
       <r>    23.3859     0.0000     0.0000 </r>
       <r>    23.5310     0.0000     0.0000 </r>
       <r>    23.6761     0.0000     0.0000 </r>
       <r>    23.8211     0.0000     0.0000 </r>
       <r>    23.9662     0.0000     0.0000 </r>
       <r>    24.1113     0.0000     0.0000 </r>
       <r>    24.2564     0.0000     0.0000 </r>
       <r>    24.4014     0.0000     0.0000 </r>
       <r>    24.5465     0.0000     0.0000 </r>
       <r>    24.6916     0.0000     0.0000 </r>
       <r>    24.8366     0.0000     0.0000 </r>
       <r>    24.9817     0.0000     0.0000 </r>
       <r>    25.1268     0.0000     0.0000 </r>
       <r>    25.2718     0.0000     0.0000 </r>
       <r>    25.4169     0.0000     0.0000 </r>
       <r>    25.5620     0.0000     0.0000 </r>
       <r>    25.7071     0.0000     0.0000 </r>
       <r>    25.8521     0.0000     0.0000 </r>
       <r>    25.9972     0.0000     0.0000 </r>
       <r>    26.1423     0.0000     0.0000 </r>
       <r>    26.2873     0.0000     0.0000 </r>
       <r>    26.4324     0.0000     0.0000 </r>
       <r>    26.5775     0.0000     0.0000 </r>
       <r>    26.7225     0.0000     0.0000 </r>
       <r>    26.8676     0.0000     0.0000 </r>
       <r>    27.0127     0.0000     0.0000 </r>
       <r>    27.1578     0.0000     0.0000 </r>
       <r>    27.3028     0.0000     0.0000 </r>
       <r>    27.4479     0.0000     0.0000 </r>
       <r>    27.5930     0.0000     0.0000 </r>
       <r>    27.7380     0.0000     0.0000 </r>
       <r>    27.8831     0.0000     0.0000 </r>
       <r>    28.0282     0.0000     0.0000 </r>
       <r>    28.1732     0.0000     0.0000 </r>
       <r>    28.3183     0.0000     0.0000 </r>
       <r>    28.4634     0.0000     0.0000 </r>
       <r>    28.6084     0.0000     0.0000 </r>
       <r>    28.7535     0.0000     0.0000 </r>
       <r>    28.8986     0.0000     0.0000 </r>
       <r>    29.0437     0.0000     0.0000 </r>
       <r>    29.1887     0.0000     0.0000 </r>
       <r>    29.3338     0.0000     0.0000 </r>
       <r>    29.4789     0.0000     0.0000 </r>
       <r>    29.6239     0.0000     0.0000 </r>
       <r>    29.7690     0.0000     0.0000 </r>
       <r>    29.9141     0.0000     0.0000 </r>
       <r>    30.0591     0.0000     0.0000 </r>
       <r>    30.2042     0.0000     0.0000 </r>
       <r>    30.3493     0.0000     0.0000 </r>
       <r>    30.4944     0.0000     0.0000 </r>
       <r>    30.6394     0.0000     0.0000 </r>
       <r>    30.7845     0.0000     0.0000 </r>
       <r>    30.9296     0.0000     0.0000 </r>
       <r>    31.0746     0.0000     0.0000 </r>
       <r>    31.2197     0.0000     0.0000 </r>
       <r>    31.3648     0.0000     0.0000 </r>
       <r>    31.5098     0.0000     0.0000 </r>
       <r>    31.6549     0.0000     0.0000 </r>
       <r>    31.8000     0.0000     0.0000 </r>
       <r>    31.9451     0.0000     0.0000 </r>
       <r>    32.0901     0.0000     0.0000 </r>
       <r>    32.2352     0.0000     0.0000 </r>
       <r>    32.3803     0.0000     0.0000 </r>
       <r>    32.5253     0.0000     0.0000 </r>
       <r>    32.6704     0.0000     0.0000 </r>
       <r>    32.8155     0.0000     0.0000 </r>
       <r>    32.9605     0.0000     0.0000 </r>
       <r>    33.1056     0.0000     0.0000 </r>
      </set>
     </set>
    </array>
   </total>
  </dos>
 </calculation>
 <structure name="finalpos" >
  <crystal>
   <varray name="basis" >
    <v>       0.00000000       2.85184593       2.85184593 </v>
    <v>       2.85184593       0.00000000       2.85184593 </v>
    <v>       2.85184593       2.85184593       0.00000000 </v>
   </varray>
   <i name="volume">     46.38826968 </i>
   <varray name="rec_basis" >
    <v>      -0.17532504       0.17532504       0.17532504 </v>
    <v>       0.17532504      -0.17532504       0.17532504 </v>
    <v>       0.17532504       0.17532504      -0.17532504 </v>
   </varray>
  </crystal>
  <varray name="positions" >
   <v>       0.00000000       0.00000000       0.00000000 </v>
   <v>       0.25000000       0.25000000       0.25000000 </v>
  </varray>
 </structure>
</modeling>
