    2    2    1    1
  0.2086933E+02  0.3893599E-09  0.3893599E-09  0.3893599E-09  0.5000000E-15
  1.000000000000000E-004
  CAR 
 Si0.5Ge0.5 zincblende primitive PBESol  
    8  286   24
 
  0.0000000E+00  0.0000000E+00  0.0000000E+00  0.1079797E-03
   1       -7.722303
   2        4.859741
   3        4.859741
   4        4.859741
   5        6.703415
   6        7.361546
   7        7.361546
   8        7.361546
   9       11.856695
  10       13.316893
  11       13.316893
  12       15.791888
  13       15.791888
  14       15.791888
  15       19.245612
  16       28.232882
  17       28.232882
  18       28.232882
  19       30.002054
  20       30.002054
  21       30.811490
  22       30.811490
  23       30.811490
  24       32.737867
 
  0.4761905E-01  0.0000000E+00  0.0000000E+00  0.8638376E-03
   1       -7.693110
   2        4.410953
   3        4.802186
   4        4.802186
   5        6.902360
   6        7.440288
   7        7.440288
   8        7.546809
   9       12.002621
  10       13.169731
  11       13.169731
  12       15.647038
  13       16.038352
  14       16.038352
  15       19.488025
  16       27.824802
  17       27.888059
  18       27.888059
  19       29.645122
  20       29.645122
  21       31.012899
  22       31.012899
  23       31.143412
  24       32.764295
 
  0.9523810E-01  0.0000000E+00  0.0000000E+00  0.8638376E-03
   1       -7.605773
   2        3.543906
   3        4.652461
   4        4.652461
   5        6.884938
   6        7.646743
   7        7.646743
   8        8.257169
   9       12.402544
  10       12.860737
  11       12.860737
  12       15.328626
  13       16.648951
  14       16.648951
  15       20.114547
  16       26.898919
  17       26.898919
  18       26.937958
  19       29.407860
  20       29.407860
  21       31.181115
  22       31.181115
  23       31.803024
  24       32.841383
 
  0.1428571E+00  0.0000000E+00  0.0000000E+00  0.8638376E-03
   1       -7.461320
   2        2.594853
   3        4.455382
   4        4.455382
   5        6.713961
   6        7.914929
   7        7.914929
   8        9.137555
   9       12.573881
  10       12.573881
  11       12.924165
  12       15.069157
  13       17.457454
  14       17.457454
  15       20.969017
  16       25.627051
  17       25.627051
  18       25.890820
  19       29.384860
  20       29.384860
  21       31.317183
  22       31.317184
  23       32.461579
  24       32.968276
 
  0.1904762E+00  0.0000000E+00  0.0000000E+00  0.8638376E-03
   1       -7.261602
   2        1.647921
   3        4.247162
   4        4.247162
   5        6.510057
   6        8.173068
   7        8.173068
   8       10.032136
   9       12.418786
  10       12.418786
  11       13.260249
  12       15.206060
  13       18.378000
  14       18.378000
  15       21.936597
  16       24.305690
  17       24.305690
  18       24.834686
  19       29.438556
  20       29.438556
  21       31.463087
  22       31.463087
  23       32.942795
  24       33.140301
 
  0.2380952E+00  0.0000000E+00  0.0000000E+00  0.8638376E-03
   1       -7.009958
   2        0.734235
   3        4.050263
   4        4.050263
   5        6.310423
   6        8.360733
   7        8.360733
   8       10.908632
   9       12.466388
  10       12.466388
  11       13.215798
  12       15.922140
  13       19.347702
  14       19.347702
  15       22.727179
  16       23.043148
  17       23.043148
  18       24.073250
  19       29.524281
  20       29.524281
  21       31.621187
  22       31.621187
  23       32.778691
  24       33.352129
 
  0.2857143E+00  0.0000000E+00  0.0000000E+00  0.8638376E-03
   1       -6.712322
   2       -0.126964
   3        3.876876
   4        3.876876
   5        6.132157
   6        8.449337
   7        8.449337
   8       11.723016
   9       12.744482
  10       12.744482
  11       13.066490
  12       16.926494
  13       20.158597
  14       20.158597
  15       22.055646
  16       22.055646
  17       22.308844
  18       24.674285
  19       29.602742
  20       29.602742
  21       31.594746
  22       31.763283
  23       31.763282
  24       33.593353
 
  0.3333333E+00  0.0000000E+00  0.0000000E+00  0.8638376E-03
   1       -6.379654
   2       -0.917087
   3        3.733589
   4        3.733589
   5        5.983869
   6        8.454126
   7        8.454126
   8       12.227549
   9       13.226438
  10       13.232964
  11       13.232964
  12       17.902366
  13       19.900571
  14       19.900571
  15       21.568215
  16       22.252266
  17       22.252266
  18       25.870756
  19       29.603743
  20       29.603744
  21       30.086114
  22       31.778444
  23       31.778504
  24       33.425090
 
  0.3809524E+00  0.0000000E+00  0.0000000E+00  0.8638376E-03
   1       -6.033385
   2       -1.609752
   3        3.624286
   4        3.624286
   5        5.870496
   6        8.415826
   7        8.415826
   8       12.236632
   9       13.887527
  10       13.887527
  11       13.932864
  12       18.347105
  13       18.899728
  14       18.899728
  15       21.429303
  16       23.313009
  17       23.313009
  18       27.044610
  19       28.675258
  20       29.371037
  21       29.371040
  22       31.375634
  23       31.375926
  24       32.808524
 
  0.4285714E+00  0.0000000E+00  0.0000000E+00  0.8638376E-03
   1       -5.717217
   2       -2.158453
   3        3.550648
   4        3.550648
   5        5.793947
   6        8.370727
   7        8.370727
   8       12.144351
   9       14.649070
  10       14.649070
  11       14.785710
  12       17.850623
  13       17.850623
  14       17.945795
  15       22.235651
  16       24.536441
  17       24.536441
  18       26.633464
  19       28.619606
  20       28.619607
  21       28.911413
  22       30.929496
  23       30.929589
  24       32.758297
 
  0.4761905E+00  0.0000000E+00  0.0000000E+00  0.8638376E-03
   1       -5.512530
   2       -2.479823
   3        3.513649
   4        3.513649
   5        5.755430
   6        8.342690
   7        8.342690
   8       12.086137
   9       15.391732
  10       15.391732
  11       15.528712
  12       16.960626
  13       16.960626
  14       17.301660
  15       23.421191
  16       25.287448
  17       25.707285
  18       25.707285
  19       27.563933
  20       27.563933
  21       30.096601
  22       30.787597
  23       30.787621
  24       32.389340
 
  0.4761905E-01  0.4761905E-01  0.0000000E+00  0.6478782E-03
   1       -7.683358
   2        4.450757
   3        4.680579
   4        4.680579
   5        7.095344
   6        7.255551
   7        7.588267
   8        7.588267
   9       12.049603
  10       12.909189
  11       13.356174
  12       15.867008
  13       15.867008
  14       16.068838
  15       19.580216
  16       27.617363
  17       27.617363
  18       28.219298
  19       29.286667
  20       29.496042
  21       31.120773
  22       31.120777
  23       31.237356
  24       33.126535
 
  0.9523810E-01  0.4761905E-01  0.0000000E+00  0.2591513E-02
   1       -7.615341
   2        3.770647
   3        4.489224
   4        4.601179
   5        7.161527
   6        7.311443
   7        7.844376
   8        8.115972
   9       12.357474
  10       12.539336
  11       13.260803
  12       15.642904
  13       16.179540
  14       16.638946
  15       20.097977
  16       26.783553
  17       26.833366
  18       27.867697
  19       28.873111
  20       29.121069
  21       31.266836
  22       31.305952
  23       31.758996
  24       33.299122
 
  0.1428571E+00  0.4761905E-01  0.0000000E+00  0.2591513E-02
   1       -7.489826
   2        2.872703
   3        4.271263
   4        4.463962
   5        7.027093
   6        7.492861
   7        8.146267
   8        8.929447
   9       12.198167
  10       12.868716
  11       13.036027
  12       15.323118
  13       16.837414
  14       17.453286
  15       20.883384
  16       25.556553
  17       25.742299
  18       26.957966
  19       28.774776
  20       28.999503
  21       31.339425
  22       31.455696
  23       32.467841
  24       33.415529
 
  0.1904762E+00  0.4761905E-01  0.0000000E+00  0.2591513E-02
   1       -7.308313
   2        1.941059
   3        4.056875
   4        4.268531
   5        6.836383
   6        7.752952
   7        8.430249
   8        9.742379
   9       12.027755
  10       12.869878
  11       13.337318
  12       15.237358
  13       17.680564
  14       18.382108
  15       21.812898
  16       24.234793
  17       24.554651
  18       25.850674
  19       28.808995
  20       29.043161
  21       31.420120
  22       31.613976
  23       33.059212
  24       33.564199
 
  0.2380952E+00  0.4761905E-01  0.0000000E+00  0.2591513E-02
   1       -7.073578
   2        1.026109
   3        3.863590
   4        4.054571
   5        6.638133
   6        8.000080
   7        8.637257
   8       10.466996
   9       12.123153
  10       12.872170
  11       13.451395
  12       15.709919
  13       18.616954
  14       19.375567
  15       22.682871
  16       22.939098
  17       23.456361
  18       24.802104
  19       28.894441
  20       29.144802
  21       31.496461
  22       31.791114
  23       33.131385
  24       33.742763
 
  0.2857143E+00  0.4761905E-01  0.0000000E+00  0.2591513E-02
   1       -6.790492
   2        0.153197
   3        3.701362
   4        3.847004
   5        6.454240
   6        8.167875
   7        8.732924
   8       11.073230
   9       12.546684
  10       13.097150
  11       13.303931
  12       16.612531
  13       19.515876
  14       20.317278
  15       21.808473
  16       22.182428
  17       23.142315
  18       24.618631
  19       28.997221
  20       29.268806
  21       31.470644
  22       31.981137
  23       32.135641
  24       33.927389
 
  0.3333333E+00  0.4761905E-01  0.0000000E+00  0.2591513E-02
   1       -6.467902
   2       -0.657877
   3        3.575496
   4        3.659572
   5        6.296245
   6        8.242155
   7        8.726848
   8       11.615174
   9       13.048412
  10       13.326016
  11       13.538027
  12       17.593840
  13       19.669113
  14       20.474605
  15       21.548956
  16       21.810495
  17       22.596597
  18       25.656759
  19       29.082093
  20       29.360724
  21       30.498345
  22       31.457172
  23       32.149350
  24       33.699752
 
  0.3809524E+00  0.4761905E-01  0.0000000E+00  0.2591513E-02
   1       -6.122793
   2       -1.383535
   3        3.488758
   4        3.499945
   5        6.170352
   6        8.255551
   7        8.658856
   8       12.058240
   9       13.137226
  10       14.091031
  11       14.151821
  12       18.149672
  13       18.767075
  14       19.820554
  15       21.471170
  16       22.475035
  17       23.343517
  18       26.855407
  19       28.954655
  20       29.084288
  21       29.394398
  22       30.854327
  23       32.037659
  24       32.886916
 
  0.4285714E+00  0.4761905E-01  0.0000000E+00  0.2591513E-02
   1       -5.789560
   2       -1.985395
   3        3.372670
   4        3.442019
   5        6.079682
   6        8.250812
   7        8.570150
   8       12.218161
   9       13.599059
  10       14.873835
  11       14.952188
  12       17.728202
  13       17.731937
  14       19.131552
  15       21.891439
  16       23.678685
  17       24.525590
  18       26.991861
  19       28.629952
  20       28.750074
  21       28.849665
  22       30.397333
  23       31.148942
  24       32.774178
 
  0.4761905E+00  0.4761905E-01  0.0000000E+00  0.2591513E-02
   1       -5.536182
   2       -2.393135
   3        3.280577
   4        3.435228
   5        6.025937
   6        8.257810
   7        8.489803
   8       12.220595
   9       14.323103
  10       15.522826
  11       15.738259
  12       16.892201
  13       16.990450
  14       18.274252
  15       23.002760
  16       24.939578
  17       25.513298
  18       25.826217
  19       27.613118
  20       28.152463
  21       29.817422
  22       30.391706
  23       30.498602
  24       32.851079
 
 -0.4761905E+00  0.4761905E-01  0.0000000E+00  0.2591513E-02
   1       -5.461157
   2       -2.506709
   3        3.225965
   4        3.467543
   5        6.010211
   6        8.292509
   7        8.433189
   8       12.219575
   9       14.921658
  10       15.270919
  11       15.877671
  12       16.819296
  13       17.103600
  14       17.658955
  15       23.666860
  16       24.893097
  17       25.746203
  18       25.963148
  19       27.322510
  20       27.517307
  21       30.243861
  22       30.261392
  23       30.683637
  24       32.210413
 
 -0.4285714E+00  0.4761905E-01  0.0000000E+00  0.2591513E-02
   1       -5.606005
   2       -2.284465
   3        3.210411
   4        3.537566
   5        6.032600
   6        8.357728
   7        8.404529
   8       12.247143
   9       14.461424
  10       14.539983
  11       15.844620
  12       16.788080
  13       18.020228
  14       18.150173
  15       22.574462
  16       24.489042
  17       25.395880
  18       26.154406
  19       27.917051
  20       28.487663
  21       29.419597
  22       30.189041
  23       30.847688
  24       32.656725
 
 -0.3809524E+00  0.4761905E-01  0.0000000E+00  0.2591513E-02
   1       -5.896261
   2       -1.801400
   3        3.235085
   4        3.643253
   5        6.092963
   6        8.396855
   7        8.446133
   8       12.271680
   9       13.664932
  10       13.824416
  11       15.127339
  12       17.552184
  13       18.803034
  14       19.069521
  15       21.594037
  16       23.224834
  17       24.215524
  18       27.260722
  19       28.459215
  20       28.817370
  21       29.175938
  22       30.456798
  23       31.498272
  24       32.700334
 
 -0.3333333E+00  0.4761905E-01  0.0000000E+00  0.2591513E-02
   1       -6.238977
   2       -1.152347
   3        3.300809
   4        3.782038
   5        6.190292
   6        8.391746
   7        8.536966
   8       12.138278
   9       12.974645
  10       13.315454
  11       14.342246
  12       17.964725
  13       19.199166
  14       20.119162
  15       21.422859
  16       22.116991
  17       23.090969
  18       26.434820
  19       29.099996
  20       29.302896
  21       29.587497
  22       31.216845
  23       32.007477
  24       33.027728
 
 -0.2857143E+00  0.4761905E-01  0.0000000E+00  0.2591513E-02
   1       -6.579242
   2       -0.395098
   3        3.407665
   4        3.950071
   5        6.322596
   6        8.356765
   7        8.593485
   8       11.662017
   9       12.442979
  10       13.207241
  11       13.676050
  12       17.258953
  13       19.719403
  14       20.746851
  15       21.171023
  16       22.305390
  17       22.489023
  18       25.225700
  19       29.051077
  20       29.343145
  21       31.033171
  22       31.718002
  23       31.961790
  24       33.571450
 
 -0.2380952E+00  0.4761905E-01  0.0000000E+00  0.2591513E-02
   1       -6.889994
   2        0.438263
   3        3.554828
   4        4.141490
   5        6.486245
   6        8.254920
   7        8.564334
   8       11.009398
   9       12.116779
  10       13.030945
  11       13.465612
  12       16.277379
  13       19.156303
  14       20.159193
  15       21.823423
  16       22.955466
  17       23.210165
  18       24.343911
  19       28.928391
  20       29.273386
  21       31.667583
  22       31.764838
  23       32.568462
  24       33.769699
 
 -0.1904762E+00  0.4761905E-01  0.0000000E+00  0.2591513E-02
   1       -7.157662
   2        1.325787
   3        3.740216
   4        4.346465
   5        6.673537
   6        8.068973
   7        8.406608
   8       10.294196
   9       12.021701
  10       12.784574
  11       13.508356
  12       15.491940
  13       18.192915
  14       19.191795
  15       22.398485
  16       23.059716
  17       24.415260
  18       24.798047
  19       28.803369
  20       29.194733
  21       31.513506
  22       31.674521
  23       33.245029
  24       33.645884
 
 -0.1428571E+00  0.4761905E-01  0.0000000E+00  0.2591513E-02
   1       -7.375021
   2        2.244901
   3        3.959894
   4        4.548277
   5        6.869610
   6        7.826556
   7        8.125398
   8        9.528778
   9       12.141787
  10       12.768138
  11       13.231216
  12       15.240839
  13       17.261446
  14       18.230563
  15       21.458213
  16       24.336223
  17       25.705231
  18       25.800618
  19       28.712329
  20       29.146585
  21       31.353044
  22       31.558800
  23       32.923783
  24       33.501653
 
 -0.9523810E-01  0.4761905E-01  0.0000000E+00  0.2591513E-02
   1       -7.538066
   2        3.157566
   3        4.210020
   4        4.718235
   5        7.039588
   6        7.592637
   7        7.781914
   8        8.738109
   9       12.424895
  10       12.675815
  11       12.963727
  12       15.443736
  13       16.456547
  14       17.345796
  15       20.567495
  16       25.647898
  17       26.788029
  18       26.931138
  19       28.726834
  20       29.181142
  21       31.213086
  22       31.439644
  23       32.281192
  24       33.381164
 
 -0.4761905E-01  0.4761905E-01  0.0000000E+00  0.1295756E-02
   1       -7.644500
   2        3.959266
   3        4.501987
   4        4.815107
   5        7.065528
   6        7.444171
   7        7.516182
   8        8.009275
   9       12.232568
  10       12.802008
  11       13.153015
  12       15.700058
  13       15.945554
  14       16.586354
  15       19.863239
  16       26.890783
  17       27.538304
  18       27.741516
  19       29.093388
  20       29.381878
  21       31.091483
  22       31.276998
  23       31.588681
  24       33.243214
 
  0.9523810E-01  0.9523810E-01  0.0000000E+00  0.6478782E-03
   1       -7.566665
   2        3.658695
   3        4.271799
   4        4.271799
   5        6.961294
   6        7.828296
   7        8.138648
   8        8.138648
   9       12.116677
  10       12.585532
  11       13.473851
  12       16.092465
  13       16.092465
  14       16.554173
  15       20.519276
  16       26.404601
  17       26.404601
  18       27.986883
  19       27.998519
  20       28.900375
  21       31.486586
  22       31.486588
  23       31.771808
  24       34.204835
 
  0.1428571E+00  0.9523810E-01  0.0000000E+00  0.2591513E-02
   1       -7.460240
   2        3.002243
   3        4.039607
   4        4.119972
   5        6.902025
   6        7.840245
   7        8.473975
   8        8.803015
   9       11.792721
  10       13.009112
  11       13.441691
  12       15.891017
  13       16.463083
  14       17.209962
  15       21.231209
  16       25.447960
  17       25.549086
  18       27.602697
  19       27.627491
  20       28.607924
  21       31.468029
  22       31.626952
  23       32.375791
  24       34.520630
 
  0.1904762E+00  0.9523810E-01  0.0000000E+00  0.2591513E-02
   1       -7.297298
   2        2.158170
   3        3.818586
   4        3.949979
   5        6.984633
   6        7.758505
   7        8.792656
   8        9.473694
   9       11.701867
  10       13.325782
  11       13.530863
  12       15.640856
  13       17.153760
  14       18.134310
  15       22.103018
  16       24.183355
  17       24.457397
  18       26.933497
  19       27.563960
  20       28.381392
  21       31.450625
  22       31.775510
  23       33.138419
  24       34.661269
 
  0.2380952E+00  0.9523810E-01  0.0000000E+00  0.2591513E-02
   1       -7.080110
   2        1.281604
   3        3.624154
   4        3.730122
   5        7.021416
   6        7.804244
   7        9.035870
   8        9.904793
   9       11.995151
  10       13.306974
  11       13.871028
  12       15.768340
  13       18.012446
  14       19.151744
  15       22.882413
  16       22.905123
  17       23.446731
  18       26.001006
  19       27.640900
  20       28.382547
  21       31.446682
  22       31.944481
  23       33.414060
  24       34.809668
 
  0.2857143E+00  0.9523810E-01  0.0000000E+00  0.2591513E-02
   1       -6.812684
   2        0.422052
   3        3.465445
   4        3.494593
   5        6.936067
   6        7.962798
   7        9.160746
   8       10.197316
   9       12.622969
  10       13.482433
  11       13.841263
  12       16.437747
  13       18.914702
  14       20.177874
  15       21.678842
  16       22.140195
  17       23.838797
  18       25.321140
  19       27.764676
  20       28.490982
  21       31.315540
  22       32.130936
  23       32.472335
  24       34.775863
 
  0.3333333E+00  0.9523810E-01  0.0000000E+00  0.2591513E-02
   1       -6.502156
   2       -0.392378
   3        3.267853
   4        3.347432
   5        6.806488
   6        8.089860
   7        9.165704
   8       10.573988
   9       13.390927
  10       13.681791
  11       13.874508
  12       17.331005
  13       19.396049
  14       20.603120
  15       21.034917
  16       21.797065
  17       23.414003
  18       25.896235
  19       27.905391
  20       28.641750
  21       30.532724
  22       31.521075
  23       32.315924
  24       33.948256
 
  0.3809524E+00  0.9523810E-01  0.0000000E+00  0.2591513E-02
   1       -6.162041
   2       -1.136696
   3        3.063566
   4        3.272619
   5        6.683405
   6        8.142811
   7        9.087427
   8       11.101582
   9       13.466105
  10       14.300721
  11       14.445680
  12       17.922761
  13       18.672848
  14       20.198316
  15       21.734473
  16       22.065253
  17       23.273483
  18       26.982712
  19       28.029496
  20       28.712765
  21       29.268038
  22       30.665037
  23       32.420690
  24       33.309135
 
  0.4285714E+00  0.9523810E-01  0.0000000E+00  0.2591513E-02
   1       -5.819288
   2       -1.777338
   3        2.889528
   4        3.241894
   5        6.585848
   6        8.157975
   7        8.970995
   8       11.711466
   9       13.401758
  10       15.122739
  11       15.184313
  12       17.592184
  13       17.657018
  14       20.191773
  15       21.786137
  16       22.887464
  17       24.341465
  18       27.144249
  19       28.088756
  20       28.653559
  21       28.896394
  22       29.651958
  23       31.738064
  24       32.864590
 
  0.4761905E+00  0.9523810E-01  0.0000000E+00  0.2591513E-02
   1       -5.528819
   2       -2.255301
   3        2.751015
   4        3.255045
   5        6.521997
   6        8.176136
   7        8.851177
   8       12.236689
   9       13.558944
  10       15.643243
  11       15.963957
  12       16.913573
  13       16.913900
  14       19.570732
  15       22.576792
  16       24.143149
  17       25.374859
  18       25.978255
  19       27.850090
  20       27.999046
  21       29.457182
  22       29.898834
  23       30.507198
  24       32.888055
 
 -0.4761905E+00  0.9523810E-01  0.0000000E+00  0.2591513E-02
   1       -5.384192
   2       -2.474803
   3        2.651629
   4        3.310716
   5        6.494973
   6        8.219580
   7        8.747128
   8       12.496975
   9       14.013575
  10       15.174753
  11       15.761237
  12       17.193450
  13       17.302564
  14       18.716005
  15       23.557561
  16       24.604891
  17       25.380008
  18       25.945978
  19       27.362925
  20       27.602871
  21       29.589847
  22       29.697500
  23       30.839336
  24       32.613668
 
 -0.4285714E+00  0.9523810E-01  0.0000000E+00  0.2591513E-02
   1       -5.460350
   2       -2.360102
   3        2.594353
   4        3.406889
   5        6.505855
   6        8.296966
   7        8.667367
   8       12.555359
   9       14.221168
  10       14.318224
  11       15.586277
  12       17.364157
  13       18.229348
  14       18.483531
  15       22.742276
  16       24.548643
  17       25.689922
  18       25.972612
  19       27.348980
  20       28.120499
  21       29.206223
  22       29.923488
  23       30.628243
  24       32.569411
 
 -0.3809524E+00  0.9523810E-01  0.0000000E+00  0.2591513E-02
   1       -5.714833
   2       -1.954250
   3        2.581658
   4        3.540264
   5        6.553920
   6        8.405024
   7        8.607980
   8       12.435300
   9       13.491250
  10       13.842413
  11       16.092291
  12       16.774939
  13       19.085115
  14       19.272527
  15       21.675765
  16       23.288230
  17       25.109007
  18       26.994953
  19       27.966705
  20       28.444677
  21       29.139203
  22       29.438309
  23       31.286905
  24       32.662416
 
 -0.3333333E+00  0.9523810E-01  0.0000000E+00  0.2591513E-02
   1       -6.048354
   2       -1.358607
   3        2.615933
   4        3.706706
   5        6.637791
   6        8.528634
   7        8.554333
   8       12.024199
   9       12.770749
  10       13.633725
  11       15.593224
  12       17.246506
  13       19.191041
  14       20.340980
  15       21.247238
  16       22.194209
  17       24.004958
  18       27.141545
  19       28.084381
  20       28.694657
  21       29.074071
  22       30.443928
  23       32.021920
  24       32.899387
 
 -0.2857143E+00  0.9523810E-01  0.0000000E+00  0.2591513E-02
   1       -6.393178
   2       -0.645020
   3        2.699600
   4        3.900052
   5        6.754591
   6        8.477864
   7        8.632184
   8       11.432094
   9       12.204775
  10       13.658105
  11       14.837458
  12       17.359384
  13       19.188567
  14       20.600124
  15       21.205808
  16       22.367012
  17       23.153858
  18       26.025261
  19       27.952221
  20       28.708761
  21       30.428095
  22       31.471556
  23       32.032556
  24       33.125788
 
 -0.2380952E+00  0.9523810E-01  0.0000000E+00  0.2591513E-02
   1       -6.715246
   2        0.144794
   3        2.835804
   4        4.111389
   5        6.899111
   6        8.344870
   7        8.649428
   8       10.855710
   9       11.840888
  10       13.640351
  11       14.271362
  12       16.621576
  13       19.014208
  14       20.591772
  15       20.998400
  16       23.097648
  17       23.462165
  18       25.006468
  19       27.780312
  20       28.624619
  21       31.597709
  22       31.858447
  23       32.217324
  24       33.852593
 
 -0.1904762E+00  0.9523810E-01  0.0000000E+00  0.2591513E-02
   1       -6.997734
   2        0.979157
   3        3.030795
   4        4.326725
   5        7.060686
   6        8.141518
   7        8.500061
   8       10.375234
   9       11.707662
  10       13.293898
  11       14.067809
  12       15.918949
  13       18.052400
  14       20.084991
  15       21.680992
  16       23.065008
  17       24.565329
  18       24.901936
  19       27.625319
  20       28.563631
  21       31.581839
  22       31.847980
  23       33.360426
  24       34.414486
 
 -0.1428571E+00  0.9523810E-01  0.0000000E+00  0.2591513E-02
   1       -7.231914
   2        1.817037
   3        3.300356
   4        4.523664
   5        7.211325
   6        7.900405
   7        8.185614
   8        9.923023
   9       11.791369
  10       12.981358
  11       13.715469
  12       15.679998
  13       17.115593
  14       19.107258
  15       22.185434
  16       22.984686
  17       25.648394
  18       25.781912
  19       27.541676
  20       28.590400
  21       31.438841
  22       31.745938
  23       33.595974
  24       34.488493
 
 -0.9523810E-01  0.9523810E-01  0.0000000E+00  0.1295756E-02
   1       -7.412934
   2        2.579906
   3        3.684748
   4        4.667813
   5        7.252758
   6        7.692066
   7        7.873177
   8        9.371018
   9       12.048422
  10       12.888643
  11       13.185640
  12       15.714561
  13       16.450122
  14       18.180768
  15       21.306524
  16       24.309032
  17       26.362083
  18       26.724312
  19       27.794924
  20       28.792388
  21       31.310751
  22       31.620382
  23       33.002893
  24       34.307815
 
  0.1428571E+00  0.1428571E+00  0.0000000E+00  0.6478782E-03
   1       -7.372841
   2        2.783983
   3        3.797374
   4        3.797374
   5        6.599252
   6        8.416716
   7        8.846435
   8        8.846435
   9       11.496691
  10       13.347639
  11       13.669394
  12       16.468556
  13       16.468556
  14       17.037700
  15       21.880826
  16       25.072769
  17       25.072769
  18       26.615750
  19       27.229982
  20       28.842188
  21       31.754233
  22       31.754233
  23       32.126942
  24       35.537876
 
  0.1904762E+00  0.1428571E+00  0.0000000E+00  0.2591513E-02
   1       -7.228617
   2        2.184163
   3        3.569135
   4        3.591466
   5        6.534821
   6        8.371433
   7        9.210018
   8        9.328715
   9       11.491846
  10       13.709549
  11       13.833803
  12       16.318707
  13       16.890242
  14       17.755693
  15       22.697849
  16       24.097834
  17       24.231255
  18       26.265757
  19       26.862041
  20       28.608460
  21       31.626073
  22       31.888878
  23       32.719280
  24       35.737994
 
  0.2380952E+00  0.1428571E+00  0.0000000E+00  0.2591513E-02
   1       -7.029383
   2        1.425425
   3        3.362801
   4        3.369914
   5        6.649868
   6        8.274287
   7        9.506494
   8        9.548874
   9       11.941245
  10       13.723826
  11       14.313781
  12       16.183547
  13       17.597484
  14       18.764822
  15       22.853235
  16       23.094654
  17       23.683926
  18       26.267194
  19       26.554704
  20       28.109108
  21       31.493123
  22       32.044372
  23       33.243148
  24       34.855514
 
  0.2857143E+00  0.1428571E+00  0.0000000E+00  0.2591513E-02
   1       -6.778436
   2        0.626942
   3        3.098870
   4        3.208641
   5        6.789005
   6        8.289307
   7        9.575567
   8        9.682898
   9       12.699786
  10       13.870898
  11       14.501672
  12       16.504734