<?xml version="1.0" encoding="ISO-8859-1"?>
<modeling>
 <generator>
  <i name="program" type="string">vasp </i>
  <i name="version" type="string">5.3.2  </i>
  <i name="subversion" type="string">13Sep12 (build Sep 27 2012 15:35:12) complex                          serial </i>
  <i name="platform" type="string">LinuxIFC </i>
  <i name="date" type="string">2018 12 06 </i>
  <i name="time" type="string">13:15:41 </i>
 </generator>
 <incar>
  <i type="string" name="SYSTEM"> Si0.5Ge0.5 zincblende primitive PBESol</i>
  <i type="string" name="PREC">accurate         ! precision</i>
  <i type="string" name="ALGO"> Fast             ! blocked Davidson fol</i>
  <i type="int" name="ISPIN">     1</i>
  <i type="int" name="IBRION">    -1</i>
  <i name="EDIFF">      0.00001000</i>
  <i type="int" name="NSW">     0</i>
  <i type="int" name="ISYM">     2</i>
  <i name="ENCUT">    320.00000000</i>
  <i name="ENAUG">    640.00000000</i>
  <i type="int" name="NBANDS">    24</i>
  <i type="int" name="ISMEAR">     0</i>
  <i name="SIGMA">      0.10000000</i>
  <i type="string" name="GGA"> PS               ! PBEsol</i>
 </incar>
 <kpoints>
  <generation param="Monkhorst-Pack">
   <v type="int" name="divisions">      21       21       21 </v>
   <v name="usershift">      0.00000000       0.00000000       0.00000000 </v>
   <v name="genvec1">      0.04761905       0.00000000       0.00000000 </v>
   <v name="genvec2">      0.00000000       0.04761905       0.00000000 </v>
   <v name="genvec3">      0.00000000       0.00000000       0.04761905 </v>
   <v name="shift">      0.00000000       0.00000000       0.00000000 </v>
  </generation>
  <varray name="kpointlist" >
   <v>       0.00000000       0.00000000       0.00000000 </v>
   <v>       0.04761905       0.00000000       0.00000000 </v>
   <v>       0.09523810       0.00000000       0.00000000 </v>
   <v>       0.14285714       0.00000000       0.00000000 </v>
   <v>       0.19047619       0.00000000       0.00000000 </v>
   <v>       0.23809524       0.00000000       0.00000000 </v>
   <v>       0.28571429       0.00000000       0.00000000 </v>
   <v>       0.33333333       0.00000000       0.00000000 </v>
   <v>       0.38095238       0.00000000       0.00000000 </v>
   <v>       0.42857143       0.00000000       0.00000000 </v>
   <v>       0.47619048       0.00000000       0.00000000 </v>
   <v>       0.04761905       0.04761905       0.00000000 </v>
   <v>       0.09523810       0.04761905       0.00000000 </v>
   <v>       0.14285714       0.04761905       0.00000000 </v>
   <v>       0.19047619       0.04761905       0.00000000 </v>
   <v>       0.23809524       0.04761905       0.00000000 </v>
   <v>       0.28571429       0.04761905       0.00000000 </v>
   <v>       0.33333333       0.04761905       0.00000000 </v>
   <v>       0.38095238       0.04761905       0.00000000 </v>
   <v>       0.42857143       0.04761905       0.00000000 </v>
   <v>       0.47619048       0.04761905       0.00000000 </v>
   <v>      -0.47619048       0.04761905       0.00000000 </v>
   <v>      -0.42857143       0.04761905       0.00000000 </v>
   <v>      -0.38095238       0.04761905       0.00000000 </v>
   <v>      -0.33333333       0.04761905       0.00000000 </v>
   <v>      -0.28571429       0.04761905       0.00000000 </v>
   <v>      -0.23809524       0.04761905       0.00000000 </v>
   <v>      -0.19047619       0.04761905       0.00000000 </v>
   <v>      -0.14285714       0.04761905       0.00000000 </v>
   <v>      -0.09523810       0.04761905       0.00000000 </v>
   <v>      -0.04761905       0.04761905       0.00000000 </v>
   <v>       0.09523810       0.09523810       0.00000000 </v>
   <v>       0.14285714       0.09523810       0.00000000 </v>
   <v>       0.19047619       0.09523810       0.00000000 </v>
   <v>       0.23809524       0.09523810       0.00000000 </v>
   <v>       0.28571429       0.09523810       0.00000000 </v>
   <v>       0.33333333       0.09523810       0.00000000 </v>
   <v>       0.38095238       0.09523810       0.00000000 </v>
   <v>       0.42857143       0.09523810       0.00000000 </v>
   <v>       0.47619048       0.09523810       0.00000000 </v>
   <v>      -0.47619048       0.09523810       0.00000000 </v>
   <v>      -0.42857143       0.09523810       0.00000000 </v>
   <v>      -0.38095238       0.09523810       0.00000000 </v>
   <v>      -0.33333333       0.09523810       0.00000000 </v>
   <v>      -0.28571429       0.09523810       0.00000000 </v>
   <v>      -0.23809524       0.09523810       0.00000000 </v>
   <v>      -0.19047619       0.09523810       0.00000000 </v>
   <v>      -0.14285714       0.09523810       0.00000000 </v>
   <v>      -0.09523810       0.09523810       0.00000000 </v>
   <v>       0.14285714       0.14285714       0.00000000 </v>
   <v>       0.19047619       0.14285714       0.00000000 </v>
   <v>       0.23809524       0.14285714       0.00000000 </v>
   <v>       0.28571429       0.14285714       0.00000000 </v>
   <v>       0.33333333       0.14285714       0.00000000 </v>
   <v>       0.38095238       0.14285714       0.00000000 </v>
   <v>       0.42857143       0.14285714       0.00000000 </v>
   <v>       0.47619048       0.14285714       0.00000000 </v>
   <v>      -0.47619048       0.14285714       0.00000000 </v>
   <v>      -0.42857143       0.14285714       0.00000000 </v>
   <v>      -0.38095238       0.14285714       0.00000000 </v>
   <v>      -0.33333333       0.14285714       0.00000000 </v>
   <v>      -0.28571429       0.14285714       0.00000000 </v>
   <v>      -0.23809524       0.14285714       0.00000000 </v>
   <v>      -0.19047619       0.14285714       0.00000000 </v>
   <v>      -0.14285714       0.14285714       0.00000000 </v>
   <v>       0.19047619       0.19047619       0.00000000 </v>
   <v>       0.23809524       0.19047619       0.00000000 </v>
   <v>       0.28571429       0.19047619       0.00000000 </v>
   <v>       0.33333333       0.19047619       0.00000000 </v>
   <v>       0.38095238       0.19047619       0.00000000 </v>
   <v>       0.42857143       0.19047619       0.00000000 </v>
   <v>       0.47619048       0.19047619       0.00000000 </v>
   <v>      -0.47619048       0.19047619       0.00000000 </v>
   <v>      -0.42857143       0.19047619       0.00000000 </v>
   <v>      -0.38095238       0.19047619       0.00000000 </v>
   <v>      -0.33333333       0.19047619       0.00000000 </v>
   <v>      -0.28571429       0.19047619       0.00000000 </v>
   <v>      -0.23809524       0.19047619       0.00000000 </v>
   <v>      -0.19047619       0.19047619       0.00000000 </v>
   <v>       0.23809524       0.23809524       0.00000000 </v>
   <v>       0.28571429       0.23809524       0.00000000 </v>
   <v>       0.33333333       0.23809524       0.00000000 </v>
   <v>       0.38095238       0.23809524       0.00000000 </v>
   <v>       0.42857143       0.23809524       0.00000000 </v>
   <v>       0.47619048       0.23809524       0.00000000 </v>
   <v>      -0.47619048       0.23809524       0.00000000 </v>
   <v>      -0.42857143       0.23809524       0.00000000 </v>
   <v>      -0.38095238       0.23809524       0.00000000 </v>
   <v>      -0.33333333       0.23809524       0.00000000 </v>
   <v>      -0.28571429       0.23809524       0.00000000 </v>
   <v>      -0.23809524       0.23809524       0.00000000 </v>
   <v>       0.28571429       0.28571429       0.00000000 </v>
   <v>       0.33333333       0.28571429       0.00000000 </v>
   <v>       0.38095238       0.28571429       0.00000000 </v>
   <v>       0.42857143       0.28571429       0.00000000 </v>
   <v>       0.47619048       0.28571429       0.00000000 </v>
   <v>      -0.47619048       0.28571429       0.00000000 </v>
   <v>      -0.42857143       0.28571429       0.00000000 </v>
   <v>      -0.38095238       0.28571429       0.00000000 </v>
   <v>      -0.33333333       0.28571429       0.00000000 </v>
   <v>      -0.28571429       0.28571429       0.00000000 </v>
   <v>       0.33333333       0.33333333       0.00000000 </v>
   <v>       0.38095238       0.33333333       0.00000000 </v>
   <v>       0.42857143       0.33333333       0.00000000 </v>
   <v>       0.47619048       0.33333333       0.00000000 </v>
   <v>      -0.47619048       0.33333333       0.00000000 </v>
   <v>      -0.42857143       0.33333333       0.00000000 </v>
   <v>      -0.38095238       0.33333333       0.00000000 </v>
   <v>      -0.33333333       0.33333333       0.00000000 </v>
   <v>       0.38095238       0.38095238       0.00000000 </v>
   <v>       0.42857143       0.38095238       0.00000000 </v>
   <v>       0.47619048       0.38095238       0.00000000 </v>
   <v>      -0.47619048       0.38095238       0.00000000 </v>
   <v>      -0.42857143       0.38095238       0.00000000 </v>
   <v>      -0.38095238       0.38095238       0.00000000 </v>
   <v>       0.42857143       0.42857143       0.00000000 </v>
   <v>       0.47619048       0.42857143       0.00000000 </v>
   <v>      -0.47619048       0.42857143       0.00000000 </v>
   <v>      -0.42857143       0.42857143       0.00000000 </v>
   <v>       0.47619048       0.47619048       0.00000000 </v>
   <v>      -0.47619048       0.47619048       0.00000000 </v>
   <v>       0.14285714       0.09523810       0.04761905 </v>
   <v>       0.19047619       0.09523810       0.04761905 </v>
   <v>       0.23809524       0.09523810       0.04761905 </v>
   <v>       0.28571429       0.09523810       0.04761905 </v>
   <v>       0.33333333       0.09523810       0.04761905 </v>
   <v>       0.38095238       0.09523810       0.04761905 </v>
   <v>       0.42857143       0.09523810       0.04761905 </v>
   <v>       0.47619048       0.09523810       0.04761905 </v>
   <v>      -0.47619048       0.09523810       0.04761905 </v>
   <v>       0.19047619       0.14285714       0.04761905 </v>
   <v>       0.23809524       0.14285714       0.04761905 </v>
   <v>       0.28571429       0.14285714       0.04761905 </v>
   <v>       0.33333333       0.14285714       0.04761905 </v>
   <v>       0.38095238       0.14285714       0.04761905 </v>
   <v>       0.42857143       0.14285714       0.04761905 </v>
   <v>       0.47619048       0.14285714       0.04761905 </v>
   <v>      -0.47619048       0.14285714       0.04761905 </v>
   <v>      -0.42857143       0.14285714       0.04761905 </v>
   <v>      -0.38095238       0.14285714       0.04761905 </v>
   <v>      -0.33333333       0.14285714       0.04761905 </v>
   <v>      -0.28571429       0.14285714       0.04761905 </v>
   <v>      -0.23809524       0.14285714       0.04761905 </v>
   <v>      -0.19047619       0.14285714       0.04761905 </v>
   <v>      -0.14285714       0.14285714       0.04761905 </v>
   <v>      -0.09523810       0.14285714       0.04761905 </v>
   <v>       0.23809524       0.19047619       0.04761905 </v>
   <v>       0.28571429       0.19047619       0.04761905 </v>
   <v>       0.33333333       0.19047619       0.04761905 </v>
   <v>       0.38095238       0.19047619       0.04761905 </v>
   <v>       0.42857143       0.19047619       0.04761905 </v>
   <v>       0.47619048       0.19047619       0.04761905 </v>
   <v>      -0.47619048       0.19047619       0.04761905 </v>
   <v>      -0.42857143       0.19047619       0.04761905 </v>
   <v>      -0.38095238       0.19047619       0.04761905 </v>
   <v>      -0.33333333       0.19047619       0.04761905 </v>
   <v>      -0.28571429       0.19047619       0.04761905 </v>
   <v>      -0.23809524       0.19047619       0.04761905 </v>
   <v>      -0.19047619       0.19047619       0.04761905 </v>
   <v>      -0.14285714       0.19047619       0.04761905 </v>
   <v>       0.28571429       0.23809524       0.04761905 </v>
   <v>       0.33333333       0.23809524       0.04761905 </v>
   <v>       0.38095238       0.23809524       0.04761905 </v>
   <v>       0.42857143       0.23809524       0.04761905 </v>
   <v>       0.47619048       0.23809524       0.04761905 </v>
   <v>      -0.47619048       0.23809524       0.04761905 </v>
   <v>      -0.42857143       0.23809524       0.04761905 </v>
   <v>      -0.38095238       0.23809524       0.04761905 </v>
   <v>      -0.33333333       0.23809524       0.04761905 </v>
   <v>      -0.28571429       0.23809524       0.04761905 </v>
   <v>      -0.23809524       0.23809524       0.04761905 </v>
   <v>      -0.19047619       0.23809524       0.04761905 </v>
   <v>       0.33333333       0.28571429       0.04761905 </v>
   <v>       0.38095238       0.28571429       0.04761905 </v>
   <v>       0.42857143       0.28571429       0.04761905 </v>
   <v>       0.47619048       0.28571429       0.04761905 </v>
   <v>      -0.47619048       0.28571429       0.04761905 </v>
   <v>      -0.42857143       0.28571429       0.04761905 </v>
   <v>      -0.38095238       0.28571429       0.04761905 </v>
   <v>      -0.33333333       0.28571429       0.04761905 </v>
   <v>      -0.28571429       0.28571429       0.04761905 </v>
   <v>      -0.23809524       0.28571429       0.04761905 </v>
   <v>       0.38095238       0.33333333       0.04761905 </v>
   <v>       0.42857143       0.33333333       0.04761905 </v>
   <v>       0.47619048       0.33333333       0.04761905 </v>
   <v>      -0.47619048       0.33333333       0.04761905 </v>
   <v>      -0.42857143       0.33333333       0.04761905 </v>
   <v>      -0.38095238       0.33333333       0.04761905 </v>
   <v>      -0.33333333       0.33333333       0.04761905 </v>
   <v>      -0.28571429       0.33333333       0.04761905 </v>
   <v>       0.42857143       0.38095238       0.04761905 </v>
   <v>       0.47619048       0.38095238       0.04761905 </v>
   <v>      -0.47619048       0.38095238       0.04761905 </v>
   <v>      -0.42857143       0.38095238       0.04761905 </v>
   <v>      -0.38095238       0.38095238       0.04761905 </v>
   <v>      -0.33333333       0.38095238       0.04761905 </v>
   <v>       0.47619048       0.42857143       0.04761905 </v>
   <v>      -0.47619048       0.42857143       0.04761905 </v>
   <v>      -0.42857143       0.42857143       0.04761905 </v>
   <v>      -0.38095238       0.42857143       0.04761905 </v>
   <v>      -0.47619048       0.47619048       0.04761905 </v>
   <v>      -0.42857143       0.47619048       0.04761905 </v>
   <v>       0.28571429       0.19047619       0.09523810 </v>
   <v>       0.33333333       0.19047619       0.09523810 </v>
   <v>       0.38095238       0.19047619       0.09523810 </v>
   <v>       0.42857143       0.19047619       0.09523810 </v>
   <v>       0.47619048       0.19047619       0.09523810 </v>
   <v>      -0.47619048       0.19047619       0.09523810 </v>
   <v>      -0.42857143       0.19047619       0.09523810 </v>
   <v>       0.33333333       0.23809524       0.09523810 </v>
   <v>       0.38095238       0.23809524       0.09523810 </v>
   <v>       0.42857143       0.23809524       0.09523810 </v>
   <v>       0.47619048       0.23809524       0.09523810 </v>
   <v>      -0.47619048       0.23809524       0.09523810 </v>
   <v>      -0.42857143       0.23809524       0.09523810 </v>
   <v>      -0.38095238       0.23809524       0.09523810 </v>
   <v>      -0.33333333       0.23809524       0.09523810 </v>
   <v>      -0.28571429       0.23809524       0.09523810 </v>
   <v>      -0.23809524       0.23809524       0.09523810 </v>
   <v>      -0.19047619       0.23809524       0.09523810 </v>
   <v>      -0.14285714       0.23809524       0.09523810 </v>
   <v>       0.38095238       0.28571429       0.09523810 </v>
   <v>       0.42857143       0.28571429       0.09523810 </v>
   <v>       0.47619048       0.28571429       0.09523810 </v>
   <v>      -0.47619048       0.28571429       0.09523810 </v>
   <v>      -0.42857143       0.28571429       0.09523810 </v>
   <v>      -0.38095238       0.28571429       0.09523810 </v>
   <v>      -0.33333333       0.28571429       0.09523810 </v>
   <v>      -0.28571429       0.28571429       0.09523810 </v>
   <v>      -0.23809524       0.28571429       0.09523810 </v>
   <v>      -0.19047619       0.28571429       0.09523810 </v>
   <v>       0.42857143       0.33333333       0.09523810 </v>
   <v>       0.47619048       0.33333333       0.09523810 </v>
   <v>      -0.47619048       0.33333333       0.09523810 </v>
   <v>      -0.42857143       0.33333333       0.09523810 </v>
   <v>      -0.38095238       0.33333333       0.09523810 </v>
   <v>      -0.33333333       0.33333333       0.09523810 </v>
   <v>      -0.28571429       0.33333333       0.09523810 </v>
   <v>      -0.23809524       0.33333333       0.09523810 </v>
   <v>       0.47619048       0.38095238       0.09523810 </v>
   <v>      -0.47619048       0.38095238       0.09523810 </v>
   <v>      -0.42857143       0.38095238       0.09523810 </v>
   <v>      -0.38095238       0.38095238       0.09523810 </v>
   <v>      -0.33333333       0.38095238       0.09523810 </v>
   <v>      -0.28571429       0.38095238       0.09523810 </v>
   <v>      -0.47619048       0.42857143       0.09523810 </v>
   <v>      -0.42857143       0.42857143       0.09523810 </v>
   <v>      -0.38095238       0.42857143       0.09523810 </v>
   <v>      -0.33333333       0.42857143       0.09523810 </v>
   <v>      -0.42857143       0.47619048       0.09523810 </v>
   <v>      -0.38095238       0.47619048       0.09523810 </v>
   <v>       0.42857143       0.28571429       0.14285714 </v>
   <v>       0.47619048       0.28571429       0.14285714 </v>
   <v>      -0.47619048       0.28571429       0.14285714 </v>
   <v>      -0.42857143       0.28571429       0.14285714 </v>
   <v>      -0.38095238       0.28571429       0.14285714 </v>
   <v>       0.47619048       0.33333333       0.14285714 </v>
   <v>      -0.47619048       0.33333333       0.14285714 </v>
   <v>      -0.42857143       0.33333333       0.14285714 </v>
   <v>      -0.38095238       0.33333333       0.14285714 </v>
   <v>      -0.33333333       0.33333333       0.14285714 </v>
   <v>      -0.28571429       0.33333333       0.14285714 </v>
   <v>      -0.23809524       0.33333333       0.14285714 </v>
   <v>      -0.19047619       0.33333333       0.14285714 </v>
   <v>      -0.47619048       0.38095238       0.14285714 </v>
   <v>      -0.42857143       0.38095238       0.14285714 </v>
   <v>      -0.38095238       0.38095238       0.14285714 </v>
   <v>      -0.33333333       0.38095238       0.14285714 </v>
   <v>      -0.28571429       0.38095238       0.14285714 </v>
   <v>      -0.23809524       0.38095238       0.14285714 </v>
   <v>      -0.42857143       0.42857143       0.14285714 </v>
   <v>      -0.38095238       0.42857143       0.14285714 </v>
   <v>      -0.33333333       0.42857143       0.14285714 </v>
   <v>      -0.28571429       0.42857143       0.14285714 </v>
   <v>      -0.38095238       0.47619048       0.14285714 </v>
   <v>      -0.33333333       0.47619048       0.14285714 </v>
   <v>      -0.42857143       0.38095238       0.19047619 </v>
   <v>      -0.38095238       0.38095238       0.19047619 </v>
   <v>      -0.33333333       0.38095238       0.19047619 </v>
   <v>      -0.38095238       0.42857143       0.19047619 </v>
   <v>      -0.33333333       0.42857143       0.19047619 </v>
   <v>      -0.28571429       0.42857143       0.19047619 </v>
   <v>      -0.23809524       0.42857143       0.19047619 </v>
   <v>      -0.33333333       0.47619048       0.19047619 </v>
   <v>      -0.28571429       0.47619048       0.19047619 </v>
   <v>      -0.28571429       0.47619048       0.23809524 </v>
  </varray>
  <varray name="weights" >
   <v>       0.00010798 </v>
   <v>       0.00086384 </v>
   <v>       0.00086384 </v>
   <v>       0.00086384 </v>
   <v>       0.00086384 </v>
   <v>       0.00086384 </v>
   <v>       0.00086384 </v>
   <v>       0.00086384 </v>
   <v>       0.00086384 </v>
   <v>       0.00086384 </v>
   <v>       0.00086384 </v>
   <v>       0.00064788 </v>
   <v>       0.00259151 </v>
   <v>       0.00259151 </v>
   <v>       0.00259151 </v>
   <v>       0.00259151 </v>
   <v>       0.00259151 </v>
   <v>       0.00259151 </v>
   <v>       0.00259151 </v>
   <v>       0.00259151 </v>
   <v>       0.00259151 </v>
   <v>       0.00259151 </v>
   <v>       0.00259151 </v>
   <v>       0.00259151 </v>
   <v>       0.00259151 </v>
   <v>       0.00259151 </v>
   <v>       0.00259151 </v>
   <v>       0.00259151 </v>
   <v>       0.00259151 </v>
   <v>       0.00259151 </v>
   <v>       0.00129576 </v>
   <v>       0.00064788 </v>
   <v>       0.00259151 </v>
   <v>       0.00259151 </v>
   <v>       0.00259151 </v>
   <v>       0.00259151 </v>
   <v>       0.00259151 </v>
   <v>       0.00259151 </v>
   <v>       0.00259151 </v>
   <v>       0.00259151 </v>
   <v>       0.00259151 </v>
   <v>       0.00259151 </v>
   <v>       0.00259151 </v>
   <v>       0.00259151 </v>
   <v>       0.00259151 </v>
   <v>       0.00259151 </v>
   <v>       0.00259151 </v>
   <v>       0.00259151 </v>
   <v>       0.00129576 </v>
   <v>       0.00064788 </v>
   <v>       0.00259151 </v>
   <v>       0.00259151 </v>
   <v>       0.00259151 </v>
   <v>       0.00259151 </v>
   <v>       0.00259151 </v>
   <v>       0.00259151 </v>
   <v>       0.00259151 </v>
   <v>       0.00259151 </v>
   <v>       0.00259151 </v>
   <v>       0.00259151 </v>
   <v>       0.00259151 </v>
   <v>       0.00259151 </v>
   <v>       0.00259151 </v>
   <v>       0.00259151 </v>
   <v>       0.00129576 </v>
   <v>       0.00064788 </v>
   <v>       0.00259151 </v>
   <v>       0.00259151 </v>
   <v>       0.00259151 </v>
   <v>       0.00259151 </v>
   <v>       0.00259151 </v>
   <v>       0.00259151 </v>
   <v>       0.00259151 </v>
   <v>       0.00259151 </v>
   <v>       0.00259151 </v>
   <v>       0.00259151 </v>
   <v>       0.00259151 </v>
   <v>       0.00259151 </v>
   <v>       0.00129576 </v>
   <v>       0.00064788 </v>
   <v>       0.00259151 </v>
   <v>       0.00259151 </v>
   <v>       0.00259151 </v>
   <v>       0.00259151 </v>
   <v>       0.00259151 </v>
   <v>       0.00259151 </v>
   <v>       0.00259151 </v>
   <v>       0.00259151 </v>
   <v>       0.00259151 </v>
   <v>       0.00259151 </v>
   <v>       0.00129576 </v>
   <v>       0.00064788 </v>
   <v>       0.00259151 </v>
   <v>       0.00259151 </v>
   <v>       0.00259151 </v>
   <v>       0.00259151 </v>
   <v>       0.00259151 </v>
   <v>       0.00259151 </v>
   <v>       0.00259151 </v>
   <v>       0.00259151 </v>
   <v>       0.00129576 </v>
   <v>       0.00064788 </v>
   <v>       0.00259151 </v>
   <v>       0.00259151 </v>
   <v>       0.00259151 </v>
   <v>       0.00259151 </v>
   <v>       0.00259151 </v>
   <v>       0.00259151 </v>
   <v>       0.00129576 </v>
   <v>       0.00064788 </v>
   <v>       0.00259151 </v>
   <v>       0.00259151 </v>
   <v>       0.00259151 </v>
   <v>       0.00259151 </v>
   <v>       0.00129576 </v>
   <v>       0.00064788 </v>
   <v>       0.00259151 </v>
   <v>       0.00259151 </v>
   <v>       0.00129576 </v>
   <v>       0.00064788 </v>
   <v>       0.00129576 </v>
   <v>       0.00259151 </v>
   <v>       0.00518303 </v>
   <v>       0.00518303 </v>
   <v>       0.00518303 </v>
   <v>       0.00518303 </v>
   <v>       0.00518303 </v>
   <v>       0.00518303 </v>
   <v>       0.00518303 </v>
   <v>       0.00518303 </v>
   <v>       0.00259151 </v>
   <v>       0.00518303 </v>
   <v>       0.00518303 </v>
   <v>       0.00518303 </v>
   <v>       0.00518303 </v>
   <v>       0.00518303 </v>
   <v>       0.00518303 </v>
   <v>       0.00518303 </v>
   <v>       0.00518303 </v>
   <v>       0.00518303 </v>
   <v>       0.00518303 </v>
   <v>       0.00518303 </v>
   <v>       0.00518303 </v>
   <v>       0.00518303 </v>
   <v>       0.00518303 </v>
   <v>       0.00259151 </v>
   <v>       0.00259151 </v>
   <v>       0.00518303 </v>
   <v>       0.00518303 </v>
   <v>       0.00518303 </v>
   <v>       0.00518303 </v>
   <v>       0.00518303 </v>
   <v>       0.00518303 </v>
   <v>       0.00518303 </v>
   <v>       0.00518303 </v>
   <v>       0.00518303 </v>
   <v>       0.00518303 </v>
   <v>       0.00518303 </v>
   <v>       0.00518303 </v>
   <v>       0.00259151 </v>
   <v>       0.00259151 </v>
   <v>       0.00518303 </v>
   <v>       0.00518303 </v>
   <v>       0.00518303 </v>
   <v>       0.00518303 </v>
   <v>       0.00518303 </v>
   <v>       0.00518303 </v>
   <v>       0.00518303 </v>
   <v>       0.00518303 </v>
   <v>       0.00518303 </v>
   <v>       0.00518303 </v>
   <v>       0.00259151 </v>
   <v>       0.00259151 </v>
   <v>       0.00518303 </v>
   <v>       0.00518303 </v>
   <v>       0.00518303 </v>
   <v>       0.00518303 </v>
   <v>       0.00518303 </v>
   <v>       0.00518303 </v>
   <v>       0.00518303 </v>
   <v>       0.00518303 </v>
   <v>       0.00259151 </v>
   <v>       0.00259151 </v>
   <v>       0.00518303 </v>
   <v>       0.00518303 </v>
   <v>       0.00518303 </v>
   <v>       0.00518303 </v>
   <v>       0.00518303 </v>
   <v>       0.00518303 </v>
   <v>       0.00259151 </v>
   <v>       0.00259151 </v>
   <v>       0.00518303 </v>
   <v>       0.00518303 </v>
   <v>       0.00518303 </v>
   <v>       0.00518303 </v>
   <v>       0.00259151 </v>
   <v>       0.00259151 </v>
   <v>       0.00518303 </v>
   <v>       0.00518303 </v>
   <v>       0.00259151 </v>
   <v>       0.00259151 </v>
   <v>       0.00259151 </v>
   <v>       0.00259151 </v>
   <v>       0.00518303 </v>
   <v>       0.00518303 </v>
   <v>       0.00518303 </v>
   <v>       0.00518303 </v>
   <v>       0.00518303 </v>
   <v>       0.00518303 </v>
   <v>       0.00259151 </v>
   <v>       0.00518303 </v>
   <v>       0.00518303 </v>
   <v>       0.00518303 </v>
   <v>       0.00518303 </v>
   <v>       0.00518303 </v>
   <v>       0.00518303 </v>
   <v>       0.00518303 </v>
   <v>       0.00518303 </v>
   <v>       0.00518303 </v>
   <v>       0.00518303 </v>
   <v>       0.00259151 </v>
   <v>       0.00259151 </v>
   <v>       0.00518303 </v>
   <v>       0.00518303 </v>
   <v>       0.00518303 </v>
   <v>       0.00518303 </v>
   <v>       0.00518303 </v>
   <v>       0.00518303 </v>
   <v>       0.00518303 </v>
   <v>       0.00518303 </v>
   <v>       0.00259151 </v>
   <v>       0.00259151 </v>
   <v>       0.00518303 </v>
   <v>       0.00518303 </v>
   <v>       0.00518303 </v>
   <v>       0.00518303 </v>
   <v>       0.00518303 </v>
   <v>       0.00518303 </v>
   <v>       0.00259151 </v>
   <v>       0.00259151 </v>
   <v>       0.00518303 </v>
   <v>       0.00518303 </v>
   <v>       0.00518303 </v>
   <v>       0.00518303 </v>
   <v>       0.00259151 </v>
   <v>       0.00259151 </v>
   <v>       0.00518303 </v>
   <v>       0.00518303 </v>
   <v>       0.00259151 </v>
   <v>       0.00259151 </v>
   <v>       0.00259151 </v>
   <v>       0.00259151 </v>
   <v>       0.00518303 </v>
   <v>       0.00518303 </v>
   <v>       0.00518303 </v>
   <v>       0.00518303 </v>
   <v>       0.00259151 </v>
   <v>       0.00518303 </v>
   <v>       0.00518303 </v>
   <v>       0.00518303 </v>
   <v>       0.00518303 </v>
   <v>       0.00518303 </v>
   <v>       0.00518303 </v>
   <v>       0.00259151 </v>
   <v>       0.00259151 </v>
   <v>       0.00518303 </v>
   <v>       0.00518303 </v>
   <v>       0.00518303 </v>
   <v>       0.00518303 </v>
   <v>       0.00259151 </v>
   <v>       0.00259151 </v>
   <v>       0.00518303 </v>
   <v>       0.00518303 </v>
   <v>       0.00259151 </v>
   <v>       0.00259151 </v>
   <v>       0.00259151 </v>
   <v>       0.00259151 </v>
   <v>       0.00518303 </v>
   <v>       0.00518303 </v>
   <v>       0.00259151 </v>
   <v>       0.00518303 </v>
   <v>       0.00518303 </v>
   <v>       0.00259151 </v>
   <v>       0.00259151 </v>
   <v>       0.00259151 </v>
   <v>       0.00259151 </v>
  </varray>
 </kpoints>
 <parameters>
  <separator name="general" >
   <i type="string" name="SYSTEM">Si0.5Ge0.5 zincblende primitive PBESol</i>
   <i type="logical" name="LCOMPAT"> F  </i>
  </separator>
  <separator name="electronic" >
   <i type="string" name="PREC">accura</i>
   <i name="ENMAX">    320.00000000</i>
   <i name="ENAUG">    640.00000000</i>
   <i name="EDIFF">      0.00001000</i>
   <i type="int" name="IALGO">    68</i>
   <i type="int" name="IWAVPR">     0</i>
   <i type="int" name="NBANDS">    24</i>
   <i name="NELECT">      8.00000000</i>
   <i type="int" name="TURBO">     0</i>
   <i type="int" name="IRESTART">     0</i>
   <i type="int" name="NREBOOT">     0</i>
   <i type="int" name="NMIN">     0</i>
   <i name="EREF">      0.00000000</i>
   <separator name="electronic smearing" >
    <i type="int" name="ISMEAR">     0</i>
    <i name="SIGMA">      0.10000000</i>
    <i name="KSPACING">      0.50000000</i>
    <i type="logical" name="KGAMMA"> T  </i>
   </separator>
   <separator name="electronic projectors" >
    <i type="logical" name="LREAL"> F  </i>
    <v name="ROPT">      0.00000000      0.00000000</v>
    <i type="int" name="LMAXPAW">  -100</i>
    <i type="int" name="LMAXMIX">     2</i>
    <i type="logical" name="NLSPLINE"> F  </i>
   </separator>
   <separator name="electronic startup" >
    <i type="int" name="ISTART">     0</i>
    <i type="int" name="ICHARG">     2</i>
    <i type="int" name="INIWAV">     1</i>
   </separator>
   <separator name="electronic spin" >
    <i type="int" name="ISPIN">     1</i>
    <i type="logical" name="LNONCOLLINEAR"> F  </i>
    <v name="MAGMOM">      1.00000000      1.00000000</v>
    <i name="NUPDOWN">     -1.00000000</i>
    <i type="logical" name="LSORBIT"> F  </i>
    <v name="SAXIS">      0.00000000      0.00000000      1.00000000</v>
    <i type="logical" name="LSPIRAL"> F  </i>
    <v name="QSPIRAL">      0.00000000      0.00000000      0.00000000</v>
    <i type="logical" name="LZEROZ"> F  </i>
   </separator>
   <separator name="electronic exchange-correlation" >
    <i type="logical" name="LASPH"> F  </i>
    <i type="logical" name="LMETAGGA"> F  </i>
   </separator>
   <separator name="electronic convergence" >
    <i type="int" name="NELM">    60</i>
    <i type="int" name="NELMDL">    -5</i>
    <i type="int" name="NELMIN">     2</i>
    <i name="ENINI">    320.00000000</i>
    <separator name="electronic convergence detail" >
     <i type="logical" name="LDIAG"> T  </i>
     <i type="logical" name="LSUBROT"> T  </i>
     <i name="WEIMIN">      0.00000000</i>
     <i name="EBREAK">      0.00000010</i>
     <i name="DEPER">      0.30000000</i>
     <i type="int" name="NRMM">     4</i>
     <i name="TIME">      0.40000000</i>
    </separator>
   </separator>
   <separator name="electronic mixer" >
    <i name="AMIX">      0.40000000</i>
    <i name="BMIX">      1.00000000</i>
    <i name="AMIN">      0.10000000</i>
    <i name="AMIX_MAG">      1.60000000</i>
    <i name="BMIX_MAG">      1.00000000</i>
    <separator name="electronic mixer details" >
     <i type="int" name="IMIX">     4</i>
     <i type="int" name="MAXMIX">   -45</i>
     <i name="WC">    100.00000000</i>
     <i type="int" name="INIMIX">     1</i>
     <i type="int" name="MIXPRE">     1</i>
     <i type="int" name="MREMOVE">     5</i>
    </separator>
   </separator>
   <separator name="electronic dipolcorrection" >
    <i type="logical" name="LDIPOL"> F  </i>
    <i type="logical" name="LMONO"> F  </i>
    <i type="int" name="IDIPOL">     0</i>
    <i name="EPSILON">      1.00000000</i>
    <v name="DIPOL">   -100.00000000   -100.00000000   -100.00000000</v>
    <i name="EFIELD">      0.00000000</i>
   </separator>
  </separator>
  <separator name="grids" >
   <i type="int" name="NGX">    24</i>
   <i type="int" name="NGY">    24</i>
   <i type="int" name="NGZ">    24</i>
   <i type="int" name="NGXF">    48</i>
   <i type="int" name="NGYF">    48</i>
   <i type="int" name="NGZF">    48</i>
   <i type="logical" name="ADDGRID"> F  </i>
  </separator>
  <separator name="ionic" >
   <i type="int" name="NSW">     0</i>
   <i type="int" name="IBRION">    -1</i>
   <i type="int" name="ISIF">     2</i>
   <i name="PSTRESS">      0.00000000</i>
   <i name="EDIFFG">      0.00010000</i>
   <i type="int" name="NFREE">     0</i>
   <i name="POTIM">      0.50000000</i>
   <i name="SMASS">     -3.00000000</i>
   <i name="SCALEE">      1.00000000</i>
  </separator>
  <separator name="ionic md" >
   <i name="TEBEG">      0.00010000</i>
   <i name="TEEND">      0.00010000</i>
   <i type="int" name="NBLOCK">     1</i>
   <i type="int" name="KBLOCK">     1</i>
   <i type="int" name="NPACO">   256</i>
   <i name="APACO">     16.00000000</i>
  </separator>
  <separator name="symmetry" >
   <i type="int" name="ISYM">     2</i>
   <i name="SYMPREC">      0.00001000</i>
  </separator>
  <separator name="dos" >
   <i type="logical" name="LORBIT"> F  </i>
   <v name="RWIGS">     -1.00000000     -1.00000000</v>
   <i type="int" name="NEDOS">   301</i>
   <i name="EMIN">     10.00000000</i>
   <i name="EMAX">    -10.00000000</i>
   <i name="EFERMI">      0.00000000</i>
  </separator>
  <separator name="writing" >
   <i type="int" name="NWRITE">     2</i>
   <i type="logical" name="LWAVE"> T  </i>
   <i type="logical" name="LCHARG"> T  </i>
   <i type="logical" name="LPARD"> F  </i>
   <i type="logical" name="LVTOT"> F  </i>
   <i type="logical" name="LVHAR"> F  </i>
   <i type="logical" name="LELF"> F  </i>
   <i type="logical" name="LOPTICS"> F  </i>
   <v name="STM">      0.00000000      0.00000000      0.00000000      0.00000000      0.00000000      0.00000000      0.00000000</v>
  </separator>
  <separator name="performance" >
   <i type="int" name="NPAR">     1</i>
   <i type="int" name="NSIM">     4</i>
   <i type="int" name="NBLK">    -1</i>
   <i type="logical" name="LPLANE"> T  </i>
   <i type="logical" name="LSCALAPACK"> F  </i>
   <i type="logical" name="LSCAAWARE"> F  </i>
   <i type="logical" name="LSCALU"> F  </i>
   <i type="logical" name="LASYNC"> F  </i>
   <i type="logical" name="LORBITALREAL"> F  </i>
  </separator>
  <separator name="miscellaneous" >
   <i type="int" name="IDIOT">     3</i>
   <i type="logical" name="LMUSIC"> F  </i>
   <v name="POMASS">     28.08500000     72.61000000</v>
   <v name="DARWINR">      0.00000000      0.00000000</v>
   <v name="DARWINV">      1.00000000      1.00000000</v>
   <i type="logical" name="LCORR"> T  </i>
  </separator>
  <i type="logical" name="GGA_COMPAT"> T  </i>
  <i type="logical" name="LBERRY"> F  </i>
  <i type="int" name="ICORELEVEL">     0</i>
  <i type="logical" name="LDAU"> F  </i>
  <i type="int" name="I_CONSTRAINED_M">     0</i>
  <separator name="electronic exchange-correlation" >
   <i type="string" name="GGA">PS</i>
   <i type="int" name="VOSKOWN">     0</i>
   <i type="logical" name="LHFCALC"> F  </i>
   <i type="string" name="PRECFOCK"></i>
   <i type="logical" name="LSYMGRAD"> F  </i>
   <i type="logical" name="LHFONE"> F  </i>
   <i type="logical" name="LRHFCALC"> F  </i>
   <i type="logical" name="LTHOMAS"> F  </i>
   <i type="logical" name="LMODELHF"> F  </i>
   <i name="ENCUT4O">     -1.00000000</i>
   <i type="int" name="EXXOEP">     0</i>
   <i type="int" name="FOURORBIT">     0</i>
   <i name="AEXX">      0.00000000</i>
   <i name="HFALPHA">      0.00000000</i>
   <i name="MCALPHA">      0.00000000</i>
   <i name="ALDAX">      1.00000000</i>
   <i name="AGGAX">      1.00000000</i>
   <i name="ALDAC">      1.00000000</i>
   <i name="AGGAC">      1.00000000</i>
   <i type="int" name="NKREDX">     1</i>
   <i type="int" name="NKREDY">     1</i>
   <i type="int" name="NKREDZ">     1</i>
   <i type="logical" name="SHIFTRED"> F  </i>
   <i type="logical" name="ODDONLY"> F  </i>
   <i type="logical" name="EVENONLY"> F  </i>
   <i type="int" name="LMAXFOCK">     0</i>
   <i type="int" name="NMAXFOCKAE">     0</i>
   <i type="logical" name="LFOCKAEDFT"> F  </i>
   <i name="HFSCREEN">      0.00000000</i>
   <i name="HFSCREENC">      0.00000000</i>
   <i type="int" name="NBANDSGWLOW">     0</i>
  </separator>
  <separator name="vdW DFT" >
   <i type="logical" name="LUSE_VDW"> F  </i>
   <i name="Zab_VDW">     -0.84910000</i>
   <i name="PARAM1">      0.12340000</i>
   <i name="PARAM2">      1.00000000</i>
   <i name="PARAM3">      0.00000000</i>
  </separator>
  <separator name="model GW" >
   <i type="int" name="MODEL_GW">     0</i>
   <i name="MODEL_EPS0">     12.52159927</i>
   <i name="MODEL_ALPHA">      1.00000000</i>
  </separator>
  <separator name="linear response parameters" >
   <i type="logical" name="LEPSILON"> F  </i>
   <i type="logical" name="LRPA"> F  </i>
   <i type="logical" name="LNABLA"> F  </i>
   <i type="logical" name="LVEL"> F  </i>
   <i type="int" name="KINTER">     0</i>
   <i name="CSHIFT">      0.10000000</i>
   <i name="OMEGAMAX">     -1.00000000</i>
   <i name="DEG_THRESHOLD">      0.00200000</i>
  </separator>
  <separator name="orbital magnetization" >
   <i type="logical" name="NUCIND"> F  </i>
   <v name="MAGPOS">      0.00000000      0.00000000      0.00000000</v>
   <i type="logical" name="LNICSALL"> T  </i>
   <i type="logical" name="ORBITALMAG"> F  </i>
   <i type="logical" name="LMAGBLOCH"> F  </i>
   <i type="logical" name="LCHIMAG"> F  </i>
   <i type="logical" name="LGAUGE"> T  </i>
   <i type="int" name="MAGATOM">     0</i>
   <v name="MAGDIPOL">      0.00000000      0.00000000      0.00000000</v>
   <v name="AVECCONST">      0.00000000      0.00000000      0.00000000</v>
  </separator>
  <separator name="response functions" >
   <i type="logical" name="LADDER"> F  </i>
   <i type="logical" name="LHARTREE"> T  </i>
   <i type="int" name="IBSE">     0</i>
   <i type="logical" name="LTCTE"> F  </i>
   <i type="logical" name="LTETE"> F  </i>
   <i type="logical" name="LTRIPLET"> F  </i>
   <i type="logical" name="LFXCEPS"> F  </i>
   <i type="logical" name="L2ORDER"> F  </i>
   <i type="logical" name="LUSEW"> F  </i>
   <i name="ENCUTGW">     -2.00000000</i>
   <i name="ENCUTGWSOFT">     -2.00000000</i>
   <i name="ENCUTLF">     -1.00000000</i>
   <i type="int" name="LMAXMP2">    -1</i>
   <i name="SCISSOR">      0.00000000</i>
   <i type="int" name="NOMEGA">     0</i>
   <i type="int" name="NOMEGAR">     0</i>
   <i type="int" name="NBANDSGW">    -1</i>
   <i type="int" name="NBANDSO">    -1</i>
   <i type="int" name="NBANDSV">    -1</i>
   <i type="int" name="NELM">     1</i>
   <i type="int" name="DIM">     3</i>
   <i type="int" name="ANTIRES">     0</i>
   <i name="OMEGAMAX">    -30.00000000</i>
   <i name="OMEGATL">   -200.00000000</i>
   <i type="int" name="OMEGAGRID">     0</i>
   <i name="CSHIFT">     -0.10000000</i>
   <i type="logical" name="SELFENERGY"> F  </i>
   <i type="logical" name="LSPECTRAL"> F  </i>
   <i type="logical" name="ODDONLYGW"> F  </i>
   <i type="logical" name="EVENONLYGW"> F  </i>
   <i type="int" name="NKREDLFX">     1</i>
   <i type="int" name="NKREDLFY">     1</i>
   <i type="int" name="NKREDLFZ">     1</i>
   <i type="int" name="MAXMEM">  1800</i>
   <i type="int" name="TELESCOPE">     0</i>
  </separator>
 </parameters>
 <atominfo>
  <atoms>       2 </atoms>
  <types>       2 </types>
  <array name="atoms" >
   <dimension dim="1">ion</dimension>
   <field type="string">element</field>
   <field type="int">atomtype</field>
   <set>
    <rc><c>Si</c><c>   1</c></rc>
    <rc><c>Ge</c><c>   2</c></rc>
   </set>
  </array>
  <array name="atomtypes" >
   <dimension dim="1">type</dimension>
   <field type="int">atomspertype</field>
   <field type="string">element</field>
   <field>mass</field>
   <field>valence</field>
   <field type="string">pseudopotential</field>
   <set>
    <rc><c>   1</c><c>Si</c><c>     28.08500000</c><c>      4.00000000</c><c>  PAW_PBE Si 05Jan2001                  </c></rc>
    <rc><c>   1</c><c>Ge</c><c>     72.61000000</c><c>      4.00000000</c><c>  PAW_PBE Ge 05Jan2001                  </c></rc>
   </set>
  </array>
 </atominfo>
 <structure name="initialpos" >
  <crystal>
   <varray name="basis" >
    <v>       0.00000000       2.75319000       2.75319000 </v>
    <v>       2.75319000       0.00000000       2.75319000 </v>
    <v>       2.75319000       2.75319000       0.00000000 </v>
   </varray>
   <i name="volume">     41.73866422 </i>
   <varray name="rec_basis" >
    <v>      -0.18160752       0.18160752       0.18160752 </v>
    <v>       0.18160752      -0.18160752       0.18160752 </v>
    <v>       0.18160752       0.18160752      -0.18160752 </v>
   </varray>
  </crystal>
  <varray name="positions" >
   <v>       0.00000000       0.00000000       0.00000000 </v>
   <v>       0.25000000       0.25000000       0.25000000 </v>
  </varray>
 </structure>
 <calculation>
  <scstep>
   <time name="dav">  336.53   28.64</time>
   <time name="total">  337.90   28.86</time>
   <energy>
    <i name="alphaZ">     10.77156881 </i>
    <i name="ewald">   -225.39307864 </i>
    <i name="hartreedc">    -11.50624763 </i>
    <i name="XCdc">    -15.86466552 </i>
    <i name="pawpsdc">    175.21603348 </i>
    <i name="pawaedc">   -143.49989879 </i>
    <i name="eentropy">     -0.00096911 </i>
    <i name="bandstr">     10.65084712 </i>
    <i name="atom">    207.39939521 </i>
    <i name="e_fr_energy">      7.77298493 </i>
    <i name="e_wo_entrp">      7.77395405 </i>
    <i name="e_0_energy">      7.77346949 </i>
   </energy>
  </scstep>
  <scstep>
   <time name="dav">  409.73   34.87</time>
   <time name="total">  409.92   34.88</time>
   <energy>
    <i name="e_fr_energy">    -10.32659305 </i>
    <i name="e_wo_entrp">    -10.32659304 </i>
    <i name="e_0_energy">    -10.32659304 </i>
   </energy>
  </scstep>
  <scstep>
   <time name="dav">  399.82   33.99</time>
   <time name="total">  400.00   34.00</time>
   <energy>
    <i name="e_fr_energy">    -10.75668826 </i>
    <i name="e_wo_entrp">    -10.75668826 </i>
    <i name="e_0_energy">    -10.75668826 </i>
   </energy>
  </scstep>
  <scstep>
   <time name="dav">  373.48   31.74</time>
   <time name="total">  373.65   31.76</time>
   <energy>
    <i name="e_fr_energy">    -10.75763463 </i>
    <i name="e_wo_entrp">    -10.75763463 </i>
    <i name="e_0_energy">    -10.75763463 </i>
   </energy>
  </scstep>
  <scstep>
   <time name="dav">  403.45   34.39</time>
   <time name="total">  406.35   35.16</time>
   <energy>
    <i name="e_fr_energy">    -10.75763675 </i>
    <i name="e_wo_entrp">    -10.75763675 </i>
    <i name="e_0_energy">    -10.75763675 </i>
   </energy>
  </scstep>
  <scstep>
   <time name="diag">  101.99    8.82</time>
   <time name="diis">  196.81   25.10</time>
   <time name="orth">    1.16    0.10</time>
   <time name="total">  301.38   34.89</time>
   <energy>
    <i name="e_fr_energy">    -10.63437598 </i>
    <i name="e_wo_entrp">    -10.63437596 </i>
    <i name="e_0_energy">    -10.63437597 </i>
   </energy>
  </scstep>
  <scstep>
   <time name="diag">  102.41    8.82</time>
   <time name="diis">  202.00   25.87</time>
   <time name="orth">    1.16    0.10</time>
   <time name="total">  307.92   35.68</time>
   <energy>
    <i name="e_fr_energy">    -10.57638785 </i>
    <i name="e_wo_entrp">    -10.57638611 </i>
    <i name="e_0_energy">    -10.57638698 </i>
   </energy>
  </scstep>
  <scstep>
   <time name="diag">  102.05    8.82</time>
   <time name="diis">  222.10   28.37</time>
   <time name="orth">    1.16    0.10</time>
   <time name="total">  327.79   38.16</time>
   <energy>
    <i name="e_fr_energy">    -10.57668825 </i>
    <i name="e_wo_entrp">    -10.57668708 </i>
    <i name="e_0_energy">    -10.57668766 </i>
   </energy>
  </scstep>
  <scstep>
   <time name="diag">  102.34    8.82</time>
   <time name="diis">  225.71   28.94</time>
   <time name="orth">    1.17    0.10</time>
   <time name="total">  332.16   38.74</time>
   <energy>
    <i name="e_fr_energy">    -10.57675753 </i>
    <i name="e_wo_entrp">    -10.57675640 </i>
    <i name="e_0_energy">    -10.57675696 </i>
   </energy>
  </scstep>
  <scstep>
   <time name="diag">  102.17    8.82</time>
   <time name="diis">  206.33   26.15</time>
   <time name="orth">    1.16    0.10</time>
   <time name="total">  310.00   35.18</time>
   <energy>
    <i name="alphaZ">     10.77156881 </i>
    <i name="ewald">   -225.39307864 </i>
    <i name="hartreedc">    -14.70391234 </i>
    <i name="XCdc">    -15.28200139 </i>
    <i name="pawpsdc">    663.14195709 </i>
    <i name="pawaedc">   -631.72947336 </i>
    <i name="eentropy">     -0.00000112 </i>
    <i name="bandstr">     -4.78121916 </i>
    <i name="atom">    207.39939521 </i>
    <i name="e_fr_energy">    -10.57676490 </i>
    <i name="e_wo_entrp">    -10.57676378 </i>
    <i name="e_0_energy">    -10.57676434 </i>
   </energy>
  </scstep>
  <structure>
   <crystal>
    <varray name="basis" >
     <v>       0.00000000       2.75319000       2.75319000 </v>
     <v>       2.75319000       0.00000000       2.75319000 </v>
     <v>       2.75319000       2.75319000       0.00000000 </v>
    </varray>
    <i name="volume">     41.73866422 </i>
    <varray name="rec_basis" >
     <v>      -0.18160752       0.18160752       0.18160752 </v>
     <v>       0.18160752      -0.18160752       0.18160752 </v>
     <v>       0.18160752       0.18160752      -0.18160752 </v>
    </varray>
   </crystal>
   <varray name="positions" >
    <v>       0.00000000       0.00000000       0.00000000 </v>
    <v>       0.25000000       0.25000000       0.25000000 </v>
   </varray>
  </structure>
  <varray name="forces" >
   <v>       0.00000000       0.00000000       0.00000000 </v>
   <v>       0.00000000       0.00000000       0.00000000 </v>
  </varray>
  <varray name="stress" >
   <v>      25.12123319       0.00000000       0.00000000 </v>
   <v>       0.00000000      25.12123319       0.00000000 </v>
   <v>       0.00000000       0.00000000      25.12123319 </v>
  </varray>
  <energy>
   <i name="e_fr_energy">    -10.57676490 </i>
   <i name="e_wo_entrp">    -10.57676434 </i>
   <i name="e_0_energy">     -0.00000112 </i>
  </energy>
  <time name="totalsc"> 3513.14  351.44</time>
  <eigenvalues>
   <array>
    <dimension dim="1">band</dimension>
    <dimension dim="2">kpoint</dimension>
    <dimension dim="3">spin</dimension>
    <field>eigene</field>
    <field>occ</field>
    <set>
     <set comment="spin 1">
      <set comment="kpoint 1">
       <r>   -7.7223    1.0000 </r>
       <r>    4.8597    0.9980 </r>
       <r>    4.8597    0.9980 </r>
       <r>    4.8597    0.9980 </r>
       <r>    6.7034    0.0000 </r>
       <r>    7.3615    0.0000 </r>
       <r>    7.3615    0.0000 </r>
       <r>    7.3615    0.0000 </r>
       <r>   11.8567    0.0000 </r>
       <r>   13.3169    0.0000 </r>
       <r>   13.3169    0.0000 </r>
       <r>   15.7919    0.0000 </r>
       <r>   15.7919    0.0000 </r>
       <r>   15.7919    0.0000 </r>
       <r>   19.2456    0.0000 </r>
       <r>   28.2329    0.0000 </r>
       <r>   28.2329    0.0000 </r>
       <r>   28.2329    0.0000 </r>
       <r>   30.0021    0.0000 </r>
       <r>   30.0021    0.0000 </r>
       <r>   30.8115    0.0000 </r>
       <r>   30.8115    0.0000 </r>
       <r>   30.8115    0.0000 </r>
       <r>   32.7379    0.0000 </r>
      </set>
      <set comment="kpoint 2">
       <r>   -7.6931    1.0000 </r>
       <r>    4.4110    1.0000 </r>
       <r>    4.8022    0.9999 </r>
       <r>    4.8022    0.9999 </r>
       <r>    6.9024    0.0000 </r>
       <r>    7.4403    0.0000 </r>
       <r>    7.4403    0.0000 </r>
       <r>    7.5468    0.0000 </r>
       <r>   12.0026    0.0000 </r>
       <r>   13.1697    0.0000 </r>
       <r>   13.1697    0.0000 </r>
       <r>   15.6470    0.0000 </r>
       <r>   16.0384    0.0000 </r>
       <r>   16.0384    0.0000 </r>
       <r>   19.4880    0.0000 </r>
       <r>   27.8248    0.0000 </r>
       <r>   27.8881    0.0000 </r>
       <r>   27.8881    0.0000 </r>
       <r>   29.6451    0.0000 </r>
       <r>   29.6451    0.0000 </r>
       <r>   31.0129    0.0000 </r>
       <r>   31.0129    0.0000 </r>
       <r>   31.1434    0.0000 </r>
       <r>   32.7643    0.0000 </r>
      </set>
      <set comment="kpoint 3">
       <r>   -7.6058    1.0000 </r>
       <r>    3.5439    1.0000 </r>
       <r>    4.6525    1.0000 </r>
       <r>    4.6525    1.0000 </r>
       <r>    6.8849    0.0000 </r>
       <r>    7.6467    0.0000 </r>
       <r>    7.6467    0.0000 </r>
       <r>    8.2572    0.0000 </r>
       <r>   12.4025    0.0000 </r>
       <r>   12.8607    0.0000 </r>
       <r>   12.8607    0.0000 </r>
       <r>   15.3286    0.0000 </r>
       <r>   16.6490    0.0000 </r>
       <r>   16.6490    0.0000 </r>
       <r>   20.1145    0.0000 </r>
       <r>   26.8989    0.0000 </r>
       <r>   26.8989    0.0000 </r>
       <r>   26.9380    0.0000 </r>
       <r>   29.4079    0.0000 </r>
       <r>   29.4079    0.0000 </r>
       <r>   31.1811    0.0000 </r>
       <r>   31.1811    0.0000 </r>
       <r>   31.8030    0.0000 </r>
       <r>   32.8414    0.0000 </r>
      </set>
      <set comment="kpoint 4">
       <r>   -7.4613    1.0000 </r>
       <r>    2.5949    1.0000 </r>
       <r>    4.4554    1.0000 </r>
       <r>    4.4554    1.0000 </r>
       <r>    6.7140    0.0000 </r>
       <r>    7.9149    0.0000 </r>
       <r>    7.9149    0.0000 </r>
       <r>    9.1376    0.0000 </r>
       <r>   12.5739    0.0000 </r>
       <r>   12.5739    0.0000 </r>
       <r>   12.9242    0.0000 </r>
       <r>   15.0692    0.0000 </r>
       <r>   17.4575    0.0000 </r>
       <r>   17.4575    0.0000 </r>
       <r>   20.9690    0.0000 </r>
       <r>   25.6271    0.0000 </r>
       <r>   25.6271    0.0000 </r>
       <r>   25.8908    0.0000 </r>
       <r>   29.3849    0.0000 </r>
       <r>   29.3849    0.0000 </r>
       <r>   31.3172    0.0000 </r>
       <r>   31.3172    0.0000 </r>
       <r>   32.4616    0.0000 </r>
       <r>   32.9683    0.0000 </r>
      </set>
      <set comment="kpoint 5">
       <r>   -7.2616    1.0000 </r>
       <r>    1.6479    1.0000 </r>
       <r>    4.2472    1.0000 </r>
       <r>    4.2472    1.0000 </r>
       <r>    6.5101    0.0000 </r>
       <r>    8.1731    0.0000 </r>
       <r>    8.1731    0.0000 </r>
       <r>   10.0321    0.0000 </r>
       <r>   12.4188    0.0000 </r>
       <r>   12.4188    0.0000 </r>
       <r>   13.2602    0.0000 </r>
       <r>   15.2061    0.0000 </r>
       <r>   18.3780    0.0000 </r>
       <r>   18.3780    0.0000 </r>
       <r>   21.9366    0.0000 </r>
       <r>   24.3057    0.0000 </r>
       <r>   24.3057    0.0000 </r>
       <r>   24.8347    0.0000 </r>
       <r>   29.4386    0.0000 </r>
       <r>   29.4386    0.0000 </r>
       <r>   31.4631    0.0000 </r>
       <r>   31.4631    0.0000 </r>
       <r>   32.9428    0.0000 </r>
       <r>   33.1403    0.0000 </r>
      </set>
      <set comment="kpoint 6">
       <r>   -7.0100    1.0000 </r>
       <r>    0.7342    1.0000 </r>
       <r>    4.0503    1.0000 </r>
       <r>    4.0503    1.0000 </r>
       <r>    6.3104    0.0000 </r>
       <r>    8.3607    0.0000 </r>
       <r>    8.3607    0.0000 </r>
       <r>   10.9086    0.0000 </r>
       <r>   12.4664    0.0000 </r>
       <r>   12.4664    0.0000 </r>
       <r>   13.2158    0.0000 </r>
       <r>   15.9221    0.0000 </r>
       <r>   19.3477    0.0000 </r>
       <r>   19.3477    0.0000 </r>
       <r>   22.7272    0.0000 </r>
       <r>   23.0431    0.0000 </r>
       <r>   23.0431    0.0000 </r>
       <r>   24.0733    0.0000 </r>
       <r>   29.5243    0.0000 </r>
       <r>   29.5243    0.0000 </r>
       <r>   31.6212    0.0000 </r>
       <r>   31.6212    0.0000 </r>
       <r>   32.7787    0.0000 </r>
       <r>   33.3521    0.0000 </r>
      </set>
      <set comment="kpoint 7">
       <r>   -6.7123    1.0000 </r>
       <r>   -0.1270    1.0000 </r>
       <r>    3.8769    1.0000 </r>
       <r>    3.8769    1.0000 </r>
       <r>    6.1322    0.0000 </r>
       <r>    8.4493    0.0000 </r>
       <r>    8.4493    0.0000 </r>
       <r>   11.7230    0.0000 </r>
       <r>   12.7445    0.0000 </r>
       <r>   12.7445    0.0000 </r>
       <r>   13.0665    0.0000 </r>
       <r>   16.9265    0.0000 </r>
       <r>   20.1586    0.0000 </r>
       <r>   20.1586    0.0000 </r>
       <r>   22.0556    0.0000 </r>
       <r>   22.0556    0.0000 </r>
       <r>   22.3088    0.0000 </r>
       <r>   24.6743    0.0000 </r>
       <r>   29.6027    0.0000 </r>
       <r>   29.6027    0.0000 </r>
       <r>   31.5947    0.0000 </r>
       <r>   31.7633    0.0000 </r>
       <r>   31.7633    0.0000 </r>
       <r>   33.5934    0.0000 </r>
      </set>
      <set comment="kpoint 8">
       <r>   -6.3797    1.0000 </r>
       <r>   -0.9171    1.0000 </r>
       <r>    3.7336    1.0000 </r>
       <r>    3.7336    1.0000 </r>
       <r>    5.9839    0.0000 </r>
       <r>    8.4541    0.0000 </r>
       <r>    8.4541    0.0000 </r>
       <r>   12.2275    0.0000 </r>
       <r>   13.2264    0.0000 </r>
       <r>   13.2330    0.0000 </r>
       <r>   13.2330    0.0000 </r>
       <r>   17.9024    0.0000 </r>
       <r>   19.9006    0.0000 </r>
       <r>   19.9006    0.0000 </r>
       <r>   21.5682    0.0000 </r>
       <r>   22.2523    0.0000 </r>
       <r>   22.2523    0.0000 </r>
       <r>   25.8708    0.0000 </r>
       <r>   29.6037    0.0000 </r>
       <r>   29.6037    0.0000 </r>
       <r>   30.0861    0.0000 </r>
       <r>   31.7784    0.0000 </r>
       <r>   31.7785    0.0000 </r>
       <r>   33.4251    0.0000 </r>
      </set>
      <set comment="kpoint 9">
       <r>   -6.0334    1.0000 </r>
       <r>   -1.6098    1.0000 </r>
       <r>    3.6243    1.0000 </r>
       <r>    3.6243    1.0000 </r>
       <r>    5.8705    0.0000 </r>
       <r>    8.4158    0.0000 </r>
       <r>    8.4158    0.0000 </r>
       <r>   12.2366    0.0000 </r>
       <r>   13.8875    0.0000 </r>
       <r>   13.8875    0.0000 </r>
       <r>   13.9329    0.0000 </r>
       <r>   18.3471    0.0000 </r>
       <r>   18.8997    0.0000 </r>
       <r>   18.8997    0.0000 </r>
       <r>   21.4293    0.0000 </r>
       <r>   23.3130    0.0000 </r>
       <r>   23.3130    0.0000 </r>
       <r>   27.0446    0.0000 </r>
       <r>   28.6753    0.0000 </r>
       <r>   29.3710    0.0000 </r>
       <r>   29.3710    0.0000 </r>
       <r>   31.3756    0.0000 </r>
       <r>   31.3759    0.0000 </r>
       <r>   32.8085    0.0000 </r>
      </set>
      <set comment="kpoint 10">
       <r>   -5.7172    1.0000 </r>
       <r>   -2.1585    1.0000 </r>
       <r>    3.5506    1.0000 </r>
       <r>    3.5506    1.0000 </r>
       <r>    5.7939    0.0000 </r>
       <r>    8.3707    0.0000 </r>
       <r>    8.3707    0.0000 </r>
       <r>   12.1444    0.0000 </r>
       <r>   14.6491    0.0000 </r>
       <r>   14.6491    0.0000 </r>
       <r>   14.7857    0.0000 </r>
       <r>   17.8506    0.0000 </r>
       <r>   17.8506    0.0000 </r>
       <r>   17.9458    0.0000 </r>
       <r>   22.2357    0.0000 </r>
       <r>   24.5364    0.0000 </r>
       <r>   24.5364    0.0000 </r>
       <r>   26.6335    0.0000 </r>
       <r>   28.6196    0.0000 </r>
       <r>   28.6196    0.0000 </r>
       <r>   28.9114    0.0000 </r>
       <r>   30.9295    0.0000 </r>
       <r>   30.9296    0.0000 </r>
       <r>   32.7583    0.0000 </r>
      </set>
      <set comment="kpoint 11">
       <r>   -5.5125    1.0000 </r>
       <r>   -2.4798    1.0000 </r>
       <r>    3.5136    1.0000 </r>
       <r>    3.5136    1.0000 </r>
       <r>    5.7554    0.0000 </r>
       <r>    8.3427    0.0000 </r>
       <r>    8.3427    0.0000 </r>
       <r>   12.0861    0.0000 </r>
       <r>   15.3917    0.0000 </r>
       <r>   15.3917    0.0000 </r>
       <r>   15.5287    0.0000 </r>
       <r>   16.9606    0.0000 </r>
       <r>   16.9606    0.0000 </r>
       <r>   17.3017    0.0000 </r>
       <r>   23.4212    0.0000 </r>
       <r>   25.2874    0.0000 </r>
       <r>   25.7073    0.0000 </r>
       <r>   25.7073    0.0000 </r>
       <r>   27.5639    0.0000 </r>
       <r>   27.5639    0.0000 </r>
       <r>   30.0966    0.0000 </r>
       <r>   30.7876    0.0000 </r>
       <r>   30.7876    0.0000 </r>
       <r>   32.3893    0.0000 </r>
      </set>
      <set comment="kpoint 12">
       <r>   -7.6834    1.0000 </r>
       <r>    4.4508    1.0000 </r>
       <r>    4.6806    1.0000 </r>
       <r>    4.6806    1.0000 </r>
       <r>    7.0953    0.0000 </r>
       <r>    7.2556    0.0000 </r>
       <r>    7.5883    0.0000 </r>
       <r>    7.5883    0.0000 </r>
       <r>   12.0496    0.0000 </r>
       <r>   12.9092    0.0000 </r>
       <r>   13.3562    0.0000 </r>
       <r>   15.8670    0.0000 </r>
       <r>   15.8670    0.0000 </r>
       <r>   16.0688    0.0000 </r>
       <r>   19.5802    0.0000 </r>
       <r>   27.6174    0.0000 </r>
       <r>   27.6174    0.0000 </r>
       <r>   28.2193    0.0000 </r>
       <r>   29.2867    0.0000 </r>
       <r>   29.4960    0.0000 </r>
       <r>   31.1208    0.0000 </r>
       <r>   31.1208    0.0000 </r>
       <r>   31.2374    0.0000 </r>
       <r>   33.1265    0.0000 </r>
      </set>
      <set comment="kpoint 13">
       <r>   -7.6153    1.0000 </r>
       <r>    3.7706    1.0000 </r>
       <r>    4.4892    1.0000 </r>
       <r>    4.6012    1.0000 </r>
       <r>    7.1615    0.0000 </r>
       <r>    7.3114    0.0000 </r>
       <r>    7.8444    0.0000 </r>
       <r>    8.1160    0.0000 </r>
       <r>   12.3575    0.0000 </r>
       <r>   12.5393    0.0000 </r>
       <r>   13.2608    0.0000 </r>
       <r>   15.6429    0.0000 </r>
       <r>   16.1795    0.0000 </r>
       <r>   16.6389    0.0000 </r>
       <r>   20.0980    0.0000 </r>
       <r>   26.7836    0.0000 </r>
       <r>   26.8334    0.0000 </r>
       <r>   27.8677    0.0000 </r>
       <r>   28.8731    0.0000 </r>
       <r>   29.1211    0.0000 </r>
       <r>   31.2668    0.0000 </r>
       <r>   31.3060    0.0000 </r>
       <r>   31.7590    0.0000 </r>
       <r>   33.2991    0.0000 </r>
      </set>
      <set comment="kpoint 14">
       <r>   -7.4898    1.0000 </r>
       <r>    2.8727    1.0000 </r>
       <r>    4.2713    1.0000 </r>
       <r>    4.4640    1.0000 </r>
       <r>    7.0271    0.0000 </r>
       <r>    7.4929    0.0000 </r>
       <r>    8.1463    0.0000 </r>
       <r>    8.9294    0.0000 </r>
       <r>   12.1982    0.0000 </r>
       <r>   12.8687    0.0000 </r>
       <r>   13.0360    0.0000 </r>
       <r>   15.3231    0.0000 </r>
       <r>   16.8374    0.0000 </r>
       <r>   17.4533    0.0000 </r>
       <r>   20.8834    0.0000 </r>
       <r>   25.5566    0.0000 </r>
       <r>   25.7423    0.0000 </r>
       <r>   26.9580    0.0000 </r>
       <r>   28.7748    0.0000 </r>
       <r>   28.9995    0.0000 </r>
       <r>   31.3394    0.0000 </r>
       <r>   31.4557    0.0000 </r>
       <r>   32.4678    0.0000 </r>
       <r>   33.4155    0.0000 </r>
      </set>
      <set comment="kpoint 15">
       <r>   -7.3083    1.0000 </r>
       <r>    1.9411    1.0000 </r>
       <r>    4.0569    1.0000 </r>
       <r>    4.2685    1.0000 </r>
       <r>    6.8364    0.0000 </r>
       <r>    7.7530    0.0000 </r>
       <r>    8.4302    0.0000 </r>
       <r>    9.7424    0.0000 </r>
       <r>   12.0278    0.0000 </r>
       <r>   12.8699    0.0000 </r>
       <r>   13.3373    0.0000 </r>
       <r>   15.2374    0.0000 </r>
       <r>   17.6806    0.0000 </r>
       <r>   18.3821    0.0000 </r>
       <r>   21.8129    0.0000 </r>
       <r>   24.2348    0.0000 </r>
       <r>   24.5547    0.0000 </r>
       <r>   25.8507    0.0000 </r>
       <r>   28.8090    0.0000 </r>
       <r>   29.0432    0.0000 </r>
       <r>   31.4201    0.0000 </r>
       <r>   31.6140    0.0000 </r>
       <r>   33.0592    0.0000 </r>
       <r>   33.5642    0.0000 </r>
      </set>
      <set comment="kpoint 16">
       <r>   -7.0736    1.0000 </r>
       <r>    1.0261    1.0000 </r>
       <r>    3.8636    1.0000 </r>
       <r>    4.0546    1.0000 </r>
       <r>    6.6381    0.0000 </r>
       <r>    8.0001    0.0000 </r>
       <r>    8.6373    0.0000 </r>
       <r>   10.4670    0.0000 </r>
       <r>   12.1232    0.0000 </r>
       <r>   12.8722    0.0000 </r>
       <r>   13.4514    0.0000 </r>
       <r>   15.7099    0.0000 </r>
       <r>   18.6170    0.0000 </r>
       <r>   19.3756    0.0000 </r>
       <r>   22.6829    0.0000 </r>
       <r>   22.9391    0.0000 </r>
       <r>   23.4564    0.0000 </r>
       <r>   24.8021    0.0000 </r>
       <r>   28.8944    0.0000 </r>
       <r>   29.1448    0.0000 </r>
       <r>   31.4965    0.0000 </r>
       <r>   31.7911    0.0000 </r>
       <r>   33.1314    0.0000 </r>
       <r>   33.7428    0.0000 </r>
      </set>
      <set comment="kpoint 17">
       <r>   -6.7905    1.0000 </r>
       <r>    0.1532    1.0000 </r>
       <r>    3.7014    1.0000 </r>
       <r>    3.8470    1.0000 </r>
       <r>    6.4542    0.0000 </r>
       <r>    8.1679    0.0000 </r>
       <r>    8.7329    0.0000 </r>
       <r>   11.0732    0.0000 </r>
       <r>   12.5467    0.0000 </r>
       <r>   13.0971    0.0000 </r>
       <r>   13.3039    0.0000 </r>
       <r>   16.6125    0.0000 </r>
       <r>   19.5159    0.0000 </r>
       <r>   20.3173    0.0000 </r>
       <r>   21.8085    0.0000 </r>
       <r>   22.1824    0.0000 </r>
       <r>   23.1423    0.0000 </r>
       <r>   24.6186    0.0000 </r>
       <r>   28.9972    0.0000 </r>
       <r>   29.2688    0.0000 </r>
       <r>   31.4706    0.0000 </r>
       <r>   31.9811    0.0000 </r>
       <r>   32.1356    0.0000 </r>
       <r>   33.9274    0.0000 </r>
      </set>
      <set comment="kpoint 18">
       <r>   -6.4679    1.0000 </r>
       <r>   -0.6579    1.0000 </r>
       <r>    3.5755    1.0000 </r>
       <r>    3.6596    1.0000 </r>
       <r>    6.2962    0.0000 </r>
       <r>    8.2422    0.0000 </r>
       <r>    8.7268    0.0000 </r>
       <r>   11.6152    0.0000 </r>
       <r>   13.0484    0.0000 </r>
       <r>   13.3260    0.0000 </r>
       <r>   13.5380    0.0000 </r>
       <r>   17.5938    0.0000 </r>
       <r>   19.6691    0.0000 </r>
       <r>   20.4746    0.0000 </r>
       <r>   21.5490    0.0000 </r>
       <r>   21.8105    0.0000 </r>
       <r>   22.5966    0.0000 </r>
       <r>   25.6568    0.0000 </r>
       <r>   29.0821    0.0000 </r>
       <r>   29.3607    0.0000 </r>
       <r>   30.4983    0.0000 </r>
       <r>   31.4572    0.0000 </r>
       <r>   32.1493    0.0000 </r>
       <r>   33.6998    0.0000 </r>
      </set>
      <set comment="kpoint 19">
       <r>   -6.1228    1.0000 </r>
       <r>   -1.3835    1.0000 </r>
       <r>    3.4888    1.0000 </r>
       <r>    3.4999    1.0000 </r>
       <r>    6.1704    0.0000 </r>
       <r>    8.2556    0.0000 </r>
       <r>    8.6589    0.0000 </r>
       <r>   12.0582    0.0000 </r>
       <r>   13.1372    0.0000 </r>
       <r>   14.0910    0.0000 </r>
       <r>   14.1518    0.0000 </r>
       <r>   18.1497    0.0000 </r>
       <r>   18.7671    0.0000 </r>
       <r>   19.8206    0.0000 </r>
       <r>   21.4712    0.0000 </r>
       <r>   22.4750    0.0000 </r>
       <r>   23.3435    0.0000 </r>
       <r>   26.8554    0.0000 </r>
       <r>   28.9547    0.0000 </r>
       <r>   29.0843    0.0000 </r>
       <r>   29.3944    0.0000 </r>
       <r>   30.8543    0.0000 </r>
       <r>   32.0377    0.0000 </r>
       <r>   32.8869    0.0000 </r>
      </set>
      <set comment="kpoint 20">
       <r>   -5.7896    1.0000 </r>
       <r>   -1.9854    1.0000 </r>
       <r>    3.3727    1.0000 </r>
       <r>    3.4420    1.0000 </r>
       <r>    6.0797    0.0000 </r>
       <r>    8.2508    0.0000 </r>
       <r>    8.5702    0.0000 </r>
       <r>   12.2182    0.0000 </r>
       <r>   13.5991    0.0000 </r>
       <r>   14.8738    0.0000 </r>
       <r>   14.9522    0.0000 </r>
       <r>   17.7282    0.0000 </r>
       <r>   17.7319    0.0000 </r>
       <r>   19.1316    0.0000 </r>
       <r>   21.8914    0.0000 </r>
       <r>   23.6787    0.0000 </r>
       <r>   24.5256    0.0000 </r>
       <r>   26.9919    0.0000 </r>
       <r>   28.6300    0.0000 </r>
       <r>   28.7501    0.0000 </r>
       <r>   28.8497    0.0000 </r>
       <r>   30.3973    0.0000 </r>
       <r>   31.1489    0.0000 </r>
       <r>   32.7742    0.0000 </r>
      </set>
      <set comment="kpoint 21">
       <r>   -5.5362    1.0000 </r>
       <r>   -2.3931    1.0000 </r>
       <r>    3.2806    1.0000 </r>
       <r>    3.4352    1.0000 </r>
       <r>    6.0259    0.0000 </r>
       <r>    8.2578    0.0000 </r>
       <r>    8.4898    0.0000 </r>
       <r>   12.2206    0.0000 </r>
       <r>   14.3231    0.0000 </r>
       <r>   15.5228    0.0000 </r>
       <r>   15.7383    0.0000 </r>
       <r>   16.8922    0.0000 </r>
       <r>   16.9905    0.0000 </r>
       <r>   18.2743    0.0000 </r>
       <r>   23.0028    0.0000 </r>
       <r>   24.9396    0.0000 </r>
       <r>   25.5133    0.0000 </r>
       <r>   25.8262    0.0000 </r>
       <r>   27.6131    0.0000 </r>
       <r>   28.1525    0.0000 </r>
       <r>   29.8174    0.0000 </r>
       <r>   30.3917    0.0000 </r>
       <r>   30.4986    0.0000 </r>
       <r>   32.8511    0.0000 </r>
      </set>
      <set comment="kpoint 22">
       <r>   -5.4612    1.0000 </r>
       <r>   -2.5067    1.0000 </r>
       <r>    3.2260    1.0000 </r>
       <r>    3.4675    1.0000 </r>
       <r>    6.0102    0.0000 </r>
       <r>    8.2925    0.0000 </r>
       <r>    8.4332    0.0000 </r>
       <r>   12.2196    0.0000 </r>
       <r>   14.9217    0.0000 </r>
       <r>   15.2709    0.0000 </r>
       <r>   15.8777    0.0000 </r>
       <r>   16.8193    0.0000 </r>
       <r>   17.1036    0.0000 </r>
       <r>   17.6590    0.0000 </r>
       <r>   23.6669    0.0000 </r>
       <r>   24.8931    0.0000 </r>
       <r>   25.7462    0.0000 </r>
       <r>   25.9631    0.0000 </r>
       <r>   27.3225    0.0000 </r>
       <r>   27.5173    0.0000 </r>
       <r>   30.2439    0.0000 </r>
       <r>   30.2614    0.0000 </r>
       <r>   30.6836    0.0000 </r>
       <r>   32.2104    0.0000 </r>
      </set>
      <set comment="kpoint 23">
       <r>   -5.6060    1.0000 </r>
       <r>   -2.2845    1.0000 </r>
       <r>    3.2104    1.0000 </r>
       <r>    3.5376    1.0000 </r>
       <r>    6.0326    0.0000 </r>
       <r>    8.3577    0.0000 </r>
       <r>    8.4045    0.0000 </r>
       <r>   12.2471    0.0000 </r>
       <r>   14.4614    0.0000 </r>
       <r>   14.5400    0.0000 </r>
       <r>   15.8446    0.0000 </r>
       <r>   16.7881    0.0000 </r>
       <r>   18.0202    0.0000 </r>
       <r>   18.1502    0.0000 </r>
       <r>   22.5745    0.0000 </r>
       <r>   24.4890    0.0000 </r>
       <r>   25.3959    0.0000 </r>
       <r>   26.1544    0.0000 </r>
       <r>   27.9171    0.0000 </r>
       <r>   28.4877    0.0000 </r>
       <r>   29.4196    0.0000 </r>
       <r>   30.1890    0.0000 </r>
       <r>   30.8477    0.0000 </r>
       <r>   32.6567    0.0000 </r>
      </set>
      <set comment="kpoint 24">
       <r>   -5.8963    1.0000 </r>
       <r>   -1.8014    1.0000 </r>
       <r>    3.2351    1.0000 </r>
       <r>    3.6433    1.0000 </r>
       <r>    6.0930    0.0000 </r>
       <r>    8.3969    0.0000 </r>
       <r>    8.4461    0.0000 </r>
       <r>   12.2717    0.0000 </r>
       <r>   13.6649    0.0000 </r>
       <r>   13.8244    0.0000 </r>
       <r>   15.1273    0.0000 </r>
       <r>   17.5522    0.0000 </r>
       <r>   18.8030    0.0000 </r>
       <r>   19.0695    0.0000 </r>
       <r>   21.5940    0.0000 </r>
       <r>   23.2248    0.0000 </r>
       <r>   24.2155    0.0000 </r>
       <r>   27.2607    0.0000 </r>
       <r>   28.4592    0.0000 </r>
       <r>   28.8174    0.0000 </r>
       <r>   29.1759    0.0000 </r>
       <r>   30.4568    0.0000 </r>
       <r>   31.4983    0.0000 </r>
       <r>   32.7003    0.0000 </r>
      </set>
      <set comment="kpoint 25">
       <r>   -6.2390    1.0000 </r>
       <r>   -1.1523    1.0000 </r>
       <r>    3.3008    1.0000 </r>
       <r>    3.7820    1.0000 </r>
       <r>    6.1903    0.0000 </r>
       <r>    8.3917    0.0000 </r>
       <r>    8.5370    0.0000 </r>
       <r>   12.1383    0.0000 </r>
       <r>   12.9746    0.0000 </r>
       <r>   13.3155    0.0000 </r>
       <r>   14.3422    0.0000 </r>
       <r>   17.9647    0.0000 </r>
       <r>   19.1992    0.0000 </r>
       <r>   20.1192    0.0000 </r>
       <r>   21.4229    0.0000 </r>
       <r>   22.1170    0.0000 </r>
       <r>   23.0910    0.0000 </r>
       <r>   26.4348    0.0000 </r>
       <r>   29.1000    0.0000 </r>
       <r>   29.3029    0.0000 </r>
       <r>   29.5875    0.0000 </r>
       <r>   31.2168    0.0000 </r>
       <r>   32.0075    0.0000 </r>
       <r>   33.0277    0.0000 </r>
      </set>
      <set comment="kpoint 26">
       <r>   -6.5792    1.0000 </r>
       <r>   -0.3951    1.0000 </r>
       <r>    3.4077    1.0000 </r>
       <r>    3.9501    1.0000 </r>
       <r>    6.3226    0.0000 </r>
       <r>    8.3568    0.0000 </r>
       <r>    8.5935    0.0000 </r>
       <r>   11.6620    0.0000 </r>
       <r>   12.4430    0.0000 </r>
       <r>   13.2072    0.0000 </r>
       <r>   13.6761    0.0000 </r>
       <r>   17.2590    0.0000 </r>
       <r>   19.7194    0.0000 </r>
       <r>   20.7469    0.0000 </r>
       <r>   21.1710    0.0000 </r>
       <r>   22.3054    0.0000 </r>
       <r>   22.4890    0.0000 </r>
       <r>   25.2257    0.0000 </r>
       <r>   29.0511    0.0000 </r>
       <r>   29.3431    0.0000 </r>
       <r>   31.0332    0.0000 </r>
       <r>   31.7180    0.0000 </r>
       <r>   31.9618    0.0000 </r>
       <r>   33.5714    0.0000 </r>
      </set>
      <set comment="kpoint 27">
       <r>   -6.8900    1.0000 </r>
       <r>    0.4383    1.0000 </r>
       <r>    3.5548    1.0000 </r>
       <r>    4.1415    1.0000 </r>
       <r>    6.4862    0.0000 </r>
       <r>    8.2549    0.0000 </r>
       <r>    8.5643    0.0000 </r>
       <r>   11.0094    0.0000 </r>
       <r>   12.1168    0.0000 </r>
       <r>   13.0309    0.0000 </r>
       <r>   13.4656    0.0000 </r>
       <r>   16.2774    0.0000 </r>
       <r>   19.1563    0.0000 </r>
       <r>   20.1592    0.0000 </r>
       <r>   21.8234    0.0000 </r>
       <r>   22.9555    0.0000 </r>
       <r>   23.2102    0.0000 </r>
       <r>   24.3439    0.0000 </r>
       <r>   28.9284    0.0000 </r>
       <r>   29.2734    0.0000 </r>
       <r>   31.6676    0.0000 </r>
       <r>   31.7648    0.0000 </r>
       <r>   32.5685    0.0000 </r>
       <r>   33.7697    0.0000 </r>
      </set>
      <set comment="kpoint 28">
       <r>   -7.1577    1.0000 </r>
       <r>    1.3258    1.0000 </r>
       <r>    3.7402    1.0000 </r>
       <r>    4.3465    1.0000 </r>
       <r>    6.6735    0.0000 </r>
       <r>    8.0690    0.0000 </r>
       <r>    8.4066    0.0000 </r>
       <r>   10.2942    0.0000 </r>
       <r>   12.0217    0.0000 </r>
       <r>   12.7846    0.0000 </r>
       <r>   13.5084    0.0000 </r>
       <r>   15.4919    0.0000 </r>
       <r>   18.1929    0.0000 </r>
       <r>   19.1918    0.0000 </r>
       <r>   22.3985    0.0000 </r>
       <r>   23.0597    0.0000 </r>
       <r>   24.4153    0.0000 </r>
       <r>   24.7980    0.0000 </r>
       <r>   28.8034    0.0000 </r>
       <r>   29.1947    0.0000 </r>
       <r>   31.5135    0.0000 </r>
       <r>   31.6745    0.0000 </r>
       <r>   33.2450    0.0000 </r>
       <r>   33.6459    0.0000 </r>
      </set>
      <set comment="kpoint 29">
       <r>   -7.3750    1.0000 </r>
       <r>    2.2449    1.0000 </r>
       <r>    3.9599    1.0000 </r>
       <r>    4.5483    1.0000 </r>
       <r>    6.8696    0.0000 </r>
       <r>    7.8266    0.0000 </r>
       <r>    8.1254    0.0000 </r>
       <r>    9.5288    0.0000 </r>
       <r>   12.1418    0.0000 </r>
       <r>   12.7681    0.0000 </r>
       <r>   13.2312    0.0000 </r>
       <r>   15.2408    0.0000 </r>
       <r>   17.2614    0.0000 </r>
       <r>   18.2306    0.0000 </r>
       <r>   21.4582    0.0000 </r>
       <r>   24.3362    0.0000 </r>
       <r>   25.7052    0.0000 </r>
       <r>   25.8006    0.0000 </r>
       <r>   28.7123    0.0000 </r>
       <r>   29.1466    0.0000 </r>
       <r>   31.3530    0.0000 </r>
       <r>   31.5588    0.0000 </r>
       <r>   32.9238    0.0000 </r>
       <r>   33.5017    0.0000 </r>
      </set>
      <set comment="kpoint 30">
       <r>   -7.5381    1.0000 </r>
       <r>    3.1576    1.0000 </r>
       <r>    4.2100    1.0000 </r>
       <r>    4.7182    1.0000 </r>
       <r>    7.0396    0.0000 </r>
       <r>    7.5926    0.0000 </r>
       <r>    7.7819    0.0000 </r>
       <r>    8.7381    0.0000 </r>
       <r>   12.4249    0.0000 </r>
       <r>   12.6758    0.0000 </r>
       <r>   12.9637    0.0000 </r>
       <r>   15.4437    0.0000 </r>
       <r>   16.4565    0.0000 </r>
       <r>   17.3458    0.0000 </r>
       <r>   20.5675    0.0000 </r>
       <r>   25.6479    0.0000 </r>
       <r>   26.7880    0.0000 </r>
       <r>   26.9311    0.0000 </r>
       <r>   28.7268    0.0000 </r>
       <r>   29.1811    0.0000 </r>
       <r>   31.2131    0.0000 </r>
       <r>   31.4396    0.0000 </r>
       <r>   32.2812    0.0000 </r>
       <r>   33.3812    0.0000 </r>
      </set>
      <set comment="kpoint 31">
       <r>   -7.6445    1.0000 </r>
       <r>    3.9593    1.0000 </r>
       <r>    4.5020    1.0000 </r>
       <r>    4.8151    0.9998 </r>
       <r>    7.0655    0.0000 </r>
       <r>    7.4442    0.0000 </r>
       <r>    7.5162    0.0000 </r>
       <r>    8.0093    0.0000 </r>
       <r>   12.2326    0.0000 </r>
       <r>   12.8020    0.0000 </r>
       <r>   13.1530    0.0000 </r>
       <r>   15.7001    0.0000 </r>
       <r>   15.9456    0.0000 </r>
       <r>   16.5864    0.0000 </r>
       <r>   19.8632    0.0000 </r>
       <r>   26.8908    0.0000 </r>
       <r>   27.5383    0.0000 </r>
       <r>   27.7415    0.0000 </r>
       <r>   29.0934    0.0000 </r>
       <r>   29.3819    0.0000 </r>
       <r>   31.0915    0.0000 </r>
       <r>   31.2770    0.0000 </r>
       <r>   31.5887    0.0000 </r>
       <r>   33.2432    0.0000 </r>
      </set>
      <set comment="kpoint 32">
       <r>   -7.5667    1.0000 </r>
       <r>    3.6587    1.0000 </r>
       <r>    4.2718    1.0000 </r>
       <r>    4.2718    1.0000 </r>
       <r>    6.9613    0.0000 </r>
       <r>    7.8283    0.0000 </r>
       <r>    8.1386    0.0000 </r>
       <r>    8.1386    0.0000 </r>
       <r>   12.1167    0.0000 </r>
       <r>   12.5855    0.0000 </r>
       <r>   13.4739    0.0000 </r>
       <r>   16.0925    0.0000 </r>
       <r>   16.0925    0.0000 </r>
       <r>   16.5542    0.0000 </r>
       <r>   20.5193    0.0000 </r>
       <r>   26.4046    0.0000 </r>
       <r>   26.4046    0.0000 </r>
       <r>   27.9869    0.0000 </r>
       <r>   27.9985    0.0000 </r>
       <r>   28.9004    0.0000 </r>
       <r>   31.4866    0.0000 </r>
       <r>   31.4866    0.0000 </r>
       <r>   31.7718    0.0000 </r>
       <r>   34.2048    0.0000 </r>
      </set>
      <set comment="kpoint 33">
       <r>   -7.4602    1.0000 </r>
       <r>    3.0022    1.0000 </r>
       <r>    4.0396    1.0000 </r>
       <r>    4.1200    1.0000 </r>
       <r>    6.9020    0.0000 </r>
       <r>    7.8402    0.0000 </r>
       <r>    8.4740    0.0000 </r>
       <r>    8.8030    0.0000 </r>
       <r>   11.7927    0.0000 </r>
       <r>   13.0091    0.0000 </r>
       <r>   13.4417    0.0000 </r>
       <r>   15.8910    0.0000 </r>
       <r>   16.4631    0.0000 </r>
       <r>   17.2100    0.0000 </r>
       <r>   21.2312    0.0000 </r>
       <r>   25.4480    0.0000 </r>
       <r>   25.5491    0.0000 </r>
       <r>   27.6027    0.0000 </r>
       <r>   27.6275    0.0000 </r>
       <r>   28.6079    0.0000 </r>
       <r>   31.4680    0.0000 </r>
       <r>   31.6270    0.0000 </r>
       <r>   32.3758    0.0000 </r>
       <r>   34.5206    0.0000 </r>
      </set>
      <set comment="kpoint 34">
       <r>   -7.2973    1.0000 </r>
       <r>    2.1582    1.0000 </r>
       <r>    3.8186    1.0000 </r>
       <r>    3.9500    1.0000 </r>
       <r>    6.9846    0.0000 </r>
       <r>    7.7585    0.0000 </r>
       <r>    8.7927    0.0000 </r>
       <r>    9.4737    0.0000 </r>
       <r>   11.7019    0.0000 </r>
       <r>   13.3258    0.0000 </r>
       <r>   13.5309    0.0000 </r>
       <r>   15.6409    0.0000 </r>
       <r>   17.1538    0.0000 </r>
       <r>   18.1343    0.0000 </r>
       <r>   22.1030    0.0000 </r>
       <r>   24.1834    0.0000 </r>
       <r>   24.4574    0.0000 </r>
       <r>   26.9335    0.0000 </r>
       <r>   27.5640    0.0000 </r>
       <r>   28.3814    0.0000 </r>
       <r>   31.4506    0.0000 </r>
       <r>   31.7755    0.0000 </r>
       <r>   33.1384    0.0000 </r>
       <r>   34.6613    0.0000 </r>
      </set>
      <set comment="kpoint 35">
       <r>   -7.0801    1.0000 </r>
       <r>    1.2816    1.0000 </r>
       <r>    3.6242    1.0000 </r>
       <r>    3.7301    1.0000 </r>
       <r>    7.0214    0.0000 </r>
       <r>    7.8042    0.0000 </r>
       <r>    9.0359    0.0000 </r>
       <r>    9.9048    0.0000 </r>
       <r>   11.9952    0.0000 </r>
       <r>   13.3070    0.0000 </r>
       <r>   13.8710    0.0000 </r>
       <r>   15.7683    0.0000 </r>
       <r>   18.0124    0.0000 </r>
       <r>   19.1517    0.0000 </r>
       <r>   22.8824    0.0000 </r>
       <r>   22.9051    0.0000 </r>
       <r>   23.4467    0.0000 </r>
       <r>   26.0010    0.0000 </r>
       <r>   27.6409    0.0000 </r>
       <r>   28.3825    0.0000 </r>
       <r>   31.4467    0.0000 </r>
       <r>   31.9445    0.0000 </r>
       <r>   33.4141    0.0000 </r>
       <r>   34.8097    0.0000 </r>
      </set>
      <set comment="kpoint 36">
       <r>   -6.8127    1.0000 </r>
       <r>    0.4221    1.0000 </r>
       <r>    3.4654    1.0000 </r>
       <r>    3.4946    1.0000 </r>
       <r>    6.9361    0.0000 </r>
       <r>    7.9628    0.0000 </r>
       <r>    9.1607    0.0000 </r>
       <r>   10.1973    0.0000 </r>
       <r>   12.6230    0.0000 </r>
       <r>   13.4824    0.0000 </r>
       <r>   13.8413    0.0000 </r>
       <r>   16.4377    0.0000 </r>
       <r>   18.9147    0.0000 </r>
       <r>   20.1779    0.0000 </r>
       <r>   21.6788    0.0000 </r>
       <r>   22.1402    0.0000 </r>
       <r>   23.8388    0.0000 </r>
       <r>   25.3211    0.0000 </r>
       <r>   27.7647    0.0000 </r>
       <r>   28.4910    0.0000 </r>
       <r>   31.3155    0.0000 </r>
       <r>   32.1309    0.0000 </r>
       <r>   32.4723    0.0000 </r>
       <r>   34.7759    0.0000 </r>
      </set>
      <set comment="kpoint 37">
       <r>   -6.5022    1.0000 </r>
       <r>   -0.3924    1.0000 </r>
       <r>    3.2679    1.0000 </r>
       <r>    3.3474    1.0000 </r>
       <r>    6.8065    0.0000 </r>
       <r>    8.0899    0.0000 </r>
       <r>    9.1657    0.0000 </r>
       <r>   10.5740    0.0000 </r>
       <r>   13.3909    0.0000 </r>
       <r>   13.6818    0.0000 </r>
       <r>   13.8745    0.0000 </r>
       <r>   17.3310    0.0000 </r>
       <r>   19.3960    0.0000 </r>
       <r>   20.6031    0.0000 </r>
       <r>   21.0349    0.0000 </r>
       <r>   21.7971    0.0000 </r>
       <r>   23.4140    0.0000 </r>
       <r>   25.8962    0.0000 </r>
       <r>   27.9054    0.0000 </r>
       <r>   28.6418    0.0000 </r>
       <r>   30.5327    0.0000 </r>
       <r>   31.5211    0.0000 </r>
[...]
       <r>   23.9005    0.0000 </r>
       <r>   24.1735    0.0000 </r>
       <r>   25.2994    0.0000 </r>
       <r>   26.4526    0.0000 </r>
       <r>   27.6670    0.0000 </r>
       <r>   29.3894    0.0000 </r>
       <r>   30.7126    0.0000 </r>
       <r>   30.9135    0.0000 </r>
      </set>
      <set comment="kpoint 283">
       <r>   -4.2955    1.0000 </r>
       <r>   -2.6410    1.0000 </r>
       <r>    0.5100    1.0000 </r>
       <r>    1.4396    1.0000 </r>
       <r>    8.5484    0.0000 </r>
       <r>    8.9849    0.0000 </r>
       <r>    9.4319    0.0000 </r>
       <r>   11.0650    0.0000 </r>
       <r>   14.0764    0.0000 </r>
       <r>   15.5921    0.0000 </r>
       <r>   17.9291    0.0000 </r>
       <r>   18.9592    0.0000 </r>
       <r>   19.6500    0.0000 </r>
       <r>   20.9829    0.0000 </r>
       <r>   22.2317    0.0000 </r>
       <r>   23.3804    0.0000 </r>
       <r>   24.2547    0.0000 </r>
       <r>   24.6161    0.0000 </r>
       <r>   25.4165    0.0000 </r>
       <r>   25.9507    0.0000 </r>
       <r>   27.8718    0.0000 </r>
       <r>   29.4562    0.0000 </r>
       <r>   29.9234    0.0000 </r>
       <r>   31.6203    0.0000 </r>
      </set>
      <set comment="kpoint 284">
       <r>   -3.9971    1.0000 </r>
       <r>   -2.9535    1.0000 </r>
       <r>    0.8227    1.0000 </r>
       <r>    1.0548    1.0000 </r>
       <r>    7.8843    0.0000 </r>
       <r>    8.2130    0.0000 </r>
       <r>   10.4629    0.0000 </r>
       <r>   11.3845    0.0000 </r>
       <r>   15.0681    0.0000 </r>
       <r>   16.2452    0.0000 </r>
       <r>   17.3117    0.0000 </r>
       <r>   18.2860    0.0000 </r>
       <r>   20.4798    0.0000 </r>
       <r>   21.8195    0.0000 </r>
       <r>   22.0067    0.0000 </r>
       <r>   22.6579    0.0000 </r>
       <r>   23.2830    0.0000 </r>
       <r>   23.5995    0.0000 </r>
       <r>   26.1764    0.0000 </r>
       <r>   26.5703    0.0000 </r>
       <r>   27.6836    0.0000 </r>
       <r>   28.8646    0.0000 </r>
       <r>   29.2304    0.0000 </r>
       <r>   30.3936    0.0000 </r>
      </set>
      <set comment="kpoint 285">
       <r>   -3.9431    1.0000 </r>
       <r>   -2.9855    1.0000 </r>
       <r>    0.6719    1.0000 </r>
       <r>    1.0713    1.0000 </r>
       <r>    8.1553    0.0000 </r>
       <r>    8.9907    0.0000 </r>
       <r>   10.1287    0.0000 </r>
       <r>   10.5259    0.0000 </r>
       <r>   15.0649    0.0000 </r>
       <r>   16.1163    0.0000 </r>
       <r>   17.4205    0.0000 </r>
       <r>   18.3790    0.0000 </r>
       <r>   20.4736    0.0000 </r>
       <r>   21.6381    0.0000 </r>
       <r>   22.4418    0.0000 </r>
       <r>   23.0133    0.0000 </r>
       <r>   23.2677    0.0000 </r>
       <r>   23.6537    0.0000 </r>
       <r>   25.5279    0.0000 </r>
       <r>   26.7077    0.0000 </r>
       <r>   27.8157    0.0000 </r>
       <r>   28.8469    0.0000 </r>
       <r>   30.2946    0.0000 </r>
       <r>   30.7320    0.0000 </r>
      </set>
      <set comment="kpoint 286">
       <r>   -3.9595    1.0000 </r>
       <r>   -2.9548    1.0000 </r>
       <r>    0.6784    1.0000 </r>
       <r>    0.9990    1.0000 </r>
       <r>    8.9600    0.0000 </r>
       <r>    9.1584    0.0000 </r>
       <r>    9.3880    0.0000 </r>
       <r>   10.2158    0.0000 </r>
       <r>   15.0624    0.0000 </r>
       <r>   16.1942    0.0000 </r>
       <r>   17.3869    0.0000 </r>
       <r>   18.3609    0.0000 </r>
       <r>   20.3778    0.0000 </r>
       <r>   21.6860    0.0000 </r>
       <r>   22.3622    0.0000 </r>
       <r>   23.0704    0.0000 </r>
       <r>   23.3719    0.0000 </r>
       <r>   24.3086    0.0000 </r>
       <r>   24.9959    0.0000 </r>
       <r>   26.4648    0.0000 </r>
       <r>   27.9468    0.0000 </r>
       <r>   29.0111    0.0000 </r>
       <r>   30.6068    0.0000 </r>
       <r>   31.7806    0.0000 </r>
      </set>
     </set>
    </set>
   </array>
  </eigenvalues>
  <separator name="orbital magnetization" >
   <v name="MAGDIPOLOUT">      0.00000000      0.00000000      0.00000000</v>
  </separator>
  <dos>
   <i name="efermi">      5.06299199 </i>
   <total>
    <array>
     <dimension dim="1">gridpoints</dimension>
     <dimension dim="2">spin</dimension>
     <field>energy</field>
     <field>total</field>
     <field>integrated</field>
     <set>
      <set comment="spin 1">
       <r>    -9.8953     0.0000     0.0000 </r>
       <r>    -9.7360     0.0000     0.0000 </r>
       <r>    -9.5766     0.0000     0.0000 </r>
       <r>    -9.4173     0.0000     0.0000 </r>
       <r>    -9.2579     0.0000     0.0000 </r>
       <r>    -9.0985     0.0000     0.0000 </r>
       <r>    -8.9392     0.0000     0.0000 </r>
       <r>    -8.7798     0.0000     0.0000 </r>
       <r>    -8.6205     0.0000     0.0000 </r>
       <r>    -8.4611     0.0000     0.0000 </r>
       <r>    -8.3018     0.0000     0.0000 </r>
       <r>    -8.1424     0.0000     0.0000 </r>
       <r>    -7.9831     0.0000     0.0000 </r>
       <r>    -7.8237     0.0008     0.0001 </r>
       <r>    -7.6644     0.0319     0.0052 </r>
       <r>    -7.5050     0.1242     0.0250 </r>
       <r>    -7.3456     0.1941     0.0559 </r>
       <r>    -7.1863     0.2445     0.0949 </r>
       <r>    -7.0269     0.2836     0.1401 </r>
       <r>    -6.8676     0.3308     0.1928 </r>
       <r>    -6.7082     0.3678     0.2514 </r>
       <r>    -6.5489     0.3897     0.3135 </r>
       <r>    -6.3895     0.4569     0.3863 </r>
       <r>    -6.2302     0.4576     0.4592 </r>
       <r>    -6.0708     0.5428     0.5457 </r>
       <r>    -5.9115     0.5355     0.6311 </r>
       <r>    -5.7521     0.6579     0.7359 </r>
       <r>    -5.5927     0.6574     0.8407 </r>
       <r>    -5.4334     0.8890     0.9823 </r>
       <r>    -5.2740     0.8394     1.1161 </r>
       <r>    -5.1147     0.8974     1.2591 </r>
       <r>    -4.9553     0.7594     1.3801 </r>
       <r>    -4.7960     0.7673     1.5024 </r>
       <r>    -4.6366     0.6617     1.6078 </r>
       <r>    -4.4773     0.6520     1.7117 </r>
       <r>    -4.3179     0.5927     1.8062 </r>
       <r>    -4.1586     0.5146     1.8882 </r>
       <r>    -3.9992     0.5048     1.9686 </r>
       <r>    -3.8398     0.1883     1.9986 </r>
       <r>    -3.6805     0.0085     2.0000 </r>
       <r>    -3.5211     0.0000     2.0000 </r>
       <r>    -3.3618     0.0001     2.0000 </r>
       <r>    -3.2024     0.0192     2.0031 </r>
       <r>    -3.0431     0.1760     2.0311 </r>
       <r>    -2.8837     0.4148     2.0972 </r>
       <r>    -2.7244     0.5181     2.1798 </r>
       <r>    -2.5650     0.6300     2.2802 </r>
       <r>    -2.4057     1.1889     2.4696 </r>
       <r>    -2.2463     1.3324     2.6820 </r>
       <r>    -2.0870     0.9354     2.8310 </r>
       <r>    -1.9276     0.7352     2.9482 </r>
       <r>    -1.7682     0.6345     3.0493 </r>
       <r>    -1.6089     0.5452     3.1362 </r>
       <r>    -1.4495     0.4914     3.2145 </r>
       <r>    -1.2902     0.4622     3.2881 </r>
       <r>    -1.1308     0.3771     3.3482 </r>
       <r>    -0.9715     0.3836     3.4093 </r>
       <r>    -0.8121     0.3256     3.4612 </r>
       <r>    -0.6528     0.3061     3.5100 </r>
       <r>    -0.4934     0.2782     3.5543 </r>
       <r>    -0.3341     0.2849     3.5997 </r>
       <r>    -0.1747     0.1870     3.6295 </r>
       <r>    -0.0153     0.2571     3.6705 </r>
       <r>     0.1440     0.2040     3.7030 </r>
       <r>     0.3034     0.3054     3.7517 </r>
       <r>     0.4627     0.7432     3.8701 </r>
       <r>     0.6221     1.1471     4.0529 </r>
       <r>     0.7814     1.1222     4.2318 </r>
       <r>     0.9408     0.9813     4.3881 </r>
       <r>     1.1001     1.0497     4.5554 </r>
       <r>     1.2595     0.9987     4.7145 </r>
       <r>     1.4188     1.0830     4.8871 </r>
       <r>     1.5782     1.0325     5.0517 </r>
       <r>     1.7376     1.3187     5.2618 </r>
       <r>     1.8969     1.3764     5.4811 </r>
       <r>     2.0563     1.4516     5.7124 </r>
       <r>     2.2156     1.3026     5.9200 </r>
       <r>     2.3750     1.4648     6.1534 </r>
       <r>     2.5343     1.2481     6.3523 </r>
       <r>     2.6937     1.2428     6.5504 </r>
       <r>     2.8530     1.2414     6.7482 </r>
       <r>     3.0124     1.1931     6.9383 </r>
       <r>     3.1717     1.0939     7.1127 </r>
       <r>     3.3311     1.1705     7.2992 </r>
       <r>     3.4905     1.0076     7.4597 </r>
       <r>     3.6498     0.8504     7.5953 </r>
       <r>     3.8092     0.6716     7.7023 </r>
       <r>     3.9685     0.5063     7.7830 </r>
       <r>     4.1279     0.4295     7.8514 </r>
       <r>     4.2872     0.3163     7.9018 </r>
       <r>     4.4466     0.2499     7.9416 </r>
       <r>     4.6059     0.2131     7.9756 </r>
       <r>     4.7653     0.1088     7.9929 </r>
       <r>     4.9246     0.0416     7.9996 </r>
       <r>     5.0840     0.0027     8.0000 </r>
       <r>     5.2434     0.0070     8.0011 </r>
       <r>     5.4027     0.0768     8.0134 </r>
       <r>     5.5621     0.1905     8.0437 </r>
       <r>     5.7214     0.2972     8.0911 </r>
       <r>     5.8808     0.4499     8.1628 </r>
       <r>     6.0401     0.5524     8.2508 </r>
       <r>     6.1995     0.6937     8.3614 </r>
       <r>     6.3588     0.8288     8.4934 </r>
       <r>     6.5182     1.0406     8.6593 </r>
       <r>     6.6775     1.2077     8.8517 </r>
       <r>     6.8369     1.3592     9.0683 </r>
       <r>     6.9963     1.6485     9.3310 </r>
       <r>     7.1556     1.4124     9.5561 </r>
       <r>     7.3150     1.3432     9.7701 </r>
       <r>     7.4743     1.1172     9.9481 </r>
       <r>     7.6337     0.8500    10.0836 </r>
       <r>     7.7930     0.8933    10.2259 </r>
       <r>     7.9524     0.9736    10.3811 </r>
       <r>     8.1117     1.4674    10.6149 </r>
       <r>     8.2711     2.2434    10.9724 </r>
       <r>     8.4304     1.7344    11.2488 </r>
       <r>     8.5898     1.5873    11.5017 </r>
       <r>     8.7491     1.3076    11.7101 </r>
       <r>     8.9085     1.1304    11.8902 </r>
       <r>     9.0679     1.2173    12.0842 </r>
       <r>     9.2272     1.3694    12.3024 </r>
       <r>     9.3866     1.0848    12.4753 </r>
       <r>     9.5459     1.2929    12.6813 </r>
       <r>     9.7053     1.2925    12.8873 </r>
       <r>     9.8646     1.4769    13.1227 </r>
       <r>    10.0240     1.2871    13.3278 </r>
       <r>    10.1833     1.1277    13.5075 </r>
       <r>    10.3427     1.1141    13.6850 </r>
       <r>    10.5020     1.0723    13.8559 </r>
       <r>    10.6614     1.0122    14.0172 </r>
       <r>    10.8208     1.0487    14.1843 </r>
       <r>    10.9801     1.0647    14.3539 </r>
       <r>    11.1395     0.8547    14.4902 </r>
       <r>    11.2988     0.7907    14.6162 </r>
       <r>    11.4582     0.9785    14.7721 </r>
       <r>    11.6175     1.1686    14.9583 </r>
       <r>    11.7769     1.0722    15.1292 </r>
       <r>    11.9362     1.1981    15.3201 </r>
       <r>    12.0956     1.2642    15.5216 </r>
       <r>    12.2549     1.3264    15.7329 </r>
       <r>    12.4143     1.3910    15.9546 </r>
       <r>    12.5737     1.2697    16.1569 </r>
       <r>    12.7330     0.9989    16.3161 </r>
       <r>    12.8924     0.8975    16.4591 </r>
       <r>    13.0517     1.2484    16.6581 </r>
       <r>    13.2111     1.3091    16.8667 </r>
       <r>    13.3704     1.3339    17.0792 </r>
       <r>    13.5298     1.5520    17.3266 </r>
       <r>    13.6891     1.5713    17.5770 </r>
       <r>    13.8485     1.1786    17.7648 </r>
       <r>    14.0078     1.4973    18.0034 </r>
       <r>    14.1672     1.3022    18.2109 </r>
       <r>    14.3266     1.3741    18.4299 </r>
       <r>    14.4859     1.4005    18.6530 </r>
       <r>    14.6453     1.1708    18.8396 </r>
       <r>    14.8046     1.3539    19.0554 </r>
       <r>    14.9640     1.1009    19.2308 </r>
       <r>    15.1233     1.2492    19.4299 </r>
       <r>    15.2827     1.3706    19.6483 </r>
       <r>    15.4420     1.1992    19.8394 </r>
       <r>    15.6014     1.1034    20.0152 </r>
       <r>    15.7607     1.4191    20.2413 </r>
       <r>    15.9201     1.3851    20.4621 </r>
       <r>    16.0795     1.5916    20.7157 </r>
       <r>    16.2388     1.6196    20.9738 </r>
       <r>    16.3982     1.4275    21.2013 </r>
       <r>    16.5575     0.8667    21.3394 </r>
       <r>    16.7169     0.8423    21.4736 </r>
       <r>    16.8762     1.4353    21.7023 </r>
       <r>    17.0356     1.8794    22.0018 </r>
       <r>    17.1949     1.4998    22.2408 </r>
       <r>    17.3543     1.5982    22.4955 </r>
       <r>    17.5136     1.7115    22.7682 </r>
       <r>    17.6730     1.4930    23.0061 </r>
       <r>    17.8324     1.5118    23.2470 </r>
       <r>    17.9917     1.4168    23.4728 </r>
       <r>    18.1511     1.3968    23.6954 </r>
       <r>    18.3104     1.4016    23.9188 </r>
       <r>    18.4698     1.3756    24.1380 </r>
       <r>    18.6291     1.5949    24.3921 </r>
       <r>    18.7885     1.7812    24.6760 </r>
       <r>    18.9478     1.7139    24.9491 </r>
       <r>    19.1072     1.9365    25.2577 </r>
       <r>    19.2665     1.5104    25.4984 </r>
       <r>    19.4259     1.1560    25.6826 </r>
       <r>    19.5853     1.0225    25.8455 </r>
       <r>    19.7446     1.1039    26.0214 </r>
       <r>    19.9040     1.3005    26.2287 </r>
       <r>    20.0633     1.6698    26.4947 </r>
       <r>    20.2227     1.5710    26.7451 </r>
       <r>    20.3820     1.5908    26.9986 </r>
       <r>    20.5414     1.6120    27.2555 </r>
       <r>    20.7007     1.6127    27.5125 </r>
       <r>    20.8601     1.5439    27.7585 </r>
       <r>    21.0194     1.4781    27.9940 </r>
       <r>    21.1788     1.2251    28.1893 </r>
       <r>    21.3381     1.2299    28.3852 </r>
       <r>    21.4975     1.5717    28.6357 </r>
       <r>    21.6569     1.8727    28.9341 </r>
       <r>    21.8162     1.9217    29.2404 </r>
       <r>    21.9756     1.5543    29.4880 </r>
       <r>    22.1349     1.6320    29.7481 </r>
       <r>    22.2943     1.6255    30.0071 </r>
       <r>    22.4536     1.5072    30.2473 </r>
       <r>    22.6130     1.3808    30.4674 </r>
       <r>    22.7723     1.5244    30.7103 </r>
       <r>    22.9317     1.8751    31.0091 </r>
       <r>    23.0910     1.9313    31.3169 </r>
       <r>    23.2504     1.9278    31.6241 </r>
       <r>    23.4098     1.5466    31.8705 </r>
       <r>    23.5691     1.3111    32.0794 </r>
       <r>    23.7285     1.3315    32.2916 </r>
       <r>    23.8878     1.4881    32.5288 </r>
       <r>    24.0472     1.6784    32.7962 </r>
       <r>    24.2065     1.8029    33.0835 </r>
       <r>    24.3659     2.0673    33.4129 </r>
       <r>    24.5252     2.1494    33.7555 </r>
       <r>    24.6846     1.6661    34.0210 </r>
       <r>    24.8439     1.2242    34.2160 </r>
       <r>    25.0033     1.4027    34.4396 </r>
       <r>    25.1627     1.2789    34.6434 </r>
       <r>    25.3220     1.5664    34.8930 </r>
       <r>    25.4814     1.7968    35.1793 </r>
       <r>    25.6407     1.5191    35.4214 </r>
       <r>    25.8001     1.6614    35.6861 </r>
       <r>    25.9594     2.1216    36.0242 </r>
       <r>    26.1188     1.8993    36.3269 </r>
       <r>    26.2781     1.5422    36.5726 </r>
       <r>    26.4375     1.5286    36.8162 </r>
       <r>    26.5968     1.7287    37.0917 </r>
       <r>    26.7562     1.7202    37.3658 </r>
       <r>    26.9156     2.1559    37.7094 </r>
       <r>    27.0749     2.3267    38.0802 </r>
       <r>    27.2343     1.8912    38.3815 </r>
       <r>    27.3936     1.8878    38.6824 </r>
       <r>    27.5530     2.1036    39.0176 </r>
       <r>    27.7123     1.8217    39.3079 </r>
       <r>    27.8717     1.7937    39.5937 </r>
       <r>    28.0310     1.5994    39.8486 </r>
       <r>    28.1904     1.2013    40.0400 </r>
       <r>    28.3497     1.4032    40.2636 </r>
       <r>    28.5091     1.6629    40.5286 </r>
       <r>    28.6685     1.8006    40.8156 </r>
       <r>    28.8278     1.7082    41.0878 </r>
       <r>    28.9872     1.7734    41.3704 </r>
       <r>    29.1465     1.9031    41.6736 </r>
       <r>    29.3059     1.8304    41.9653 </r>
       <r>    29.4652     1.5974    42.2199 </r>
       <r>    29.6246     1.7316    42.4958 </r>
       <r>    29.7839     1.3418    42.7096 </r>
       <r>    29.9433     1.3195    42.9199 </r>
       <r>    30.1026     1.6517    43.1831 </r>
       <r>    30.2620     1.7026    43.4544 </r>
       <r>    30.4214     1.5584    43.7028 </r>
       <r>    30.5807     1.4198    43.9290 </r>
       <r>    30.7401     1.7031    44.2004 </r>
       <r>    30.8994     1.6348    44.4609 </r>
       <r>    31.0588     1.7166    44.7345 </r>
       <r>    31.2181     1.8207    45.0246 </r>
       <r>    31.3775     1.8761    45.3236 </r>
       <r>    31.5368     1.6930    45.5934 </r>
       <r>    31.6962     1.7614    45.8741 </r>
       <r>    31.8555     1.8426    46.1677 </r>
       <r>    32.0149     1.5249    46.4107 </r>
       <r>    32.1742     1.3811    46.6308 </r>
       <r>    32.3336     1.1890    46.8202 </r>
       <r>    32.4930     1.1712    47.0069 </r>
       <r>    32.6523     1.0477    47.1738 </r>
       <r>    32.8117     0.7211    47.2887 </r>
       <r>    32.9710     0.7027    47.4007 </r>
       <r>    33.1304     0.5357    47.4861 </r>
       <r>    33.2897     0.5032    47.5662 </r>
       <r>    33.4491     0.5169    47.6486 </r>
       <r>    33.6084     0.4166    47.7150 </r>
       <r>    33.7678     0.2411    47.7534 </r>
       <r>    33.9271     0.1685    47.7803 </r>
       <r>    34.0865     0.1865    47.8100 </r>
       <r>    34.2459     0.1716    47.8373 </r>
       <r>    34.4052     0.3044    47.8858 </r>
       <r>    34.5646     0.1322    47.9069 </r>
       <r>    34.7239     0.1383    47.9289 </r>
       <r>    34.8833     0.2249    47.9648 </r>
       <r>    35.0426     0.0534    47.9733 </r>
       <r>    35.2020     0.0728    47.9849 </r>
       <r>    35.3613     0.0453    47.9921 </r>
       <r>    35.5207     0.0075    47.9933 </r>
       <r>    35.6800     0.0159    47.9958 </r>
       <r>    35.8394     0.0237    47.9996 </r>
       <r>    35.9988     0.0025    48.0000 </r>
       <r>    36.1581     0.0000    48.0000 </r>
       <r>    36.3175     0.0000    48.0000 </r>
       <r>    36.4768     0.0000    48.0000 </r>
       <r>    36.6362     0.0000    48.0000 </r>
       <r>    36.7955     0.0000    48.0000 </r>
       <r>    36.9549     0.0000    48.0000 </r>
       <r>    37.1142     0.0000    48.0000 </r>
       <r>    37.2736     0.0000    48.0000 </r>
       <r>    37.4329     0.0000    48.0000 </r>
       <r>    37.5923     0.0000    48.0000 </r>
       <r>    37.7517     0.0000    48.0000 </r>
       <r>    37.9110     0.0000    48.0000 </r>
      </set>
     </set>
    </array>
   </total>
  </dos>
 </calculation>
 <structure name="finalpos" >
  <crystal>
   <varray name="basis" >
    <v>       0.00000000       2.75319000       2.75319000 </v>
    <v>       2.75319000       0.00000000       2.75319000 </v>
    <v>       2.75319000       2.75319000       0.00000000 </v>
   </varray>
   <i name="volume">     41.73866422 </i>
   <varray name="rec_basis" >
    <v>      -0.18160752       0.18160752       0.18160752 </v>
    <v>       0.18160752      -0.18160752       0.18160752 </v>
    <v>       0.18160752       0.18160752      -0.18160752 </v>
   </varray>
  </crystal>
  <varray name="positions" >
   <v>       0.00000000       0.00000000       0.00000000 </v>
   <v>       0.25000000       0.25000000       0.25000000 </v>
  </varray>
 </structure>
</modeling>
