    2    2    1    1
  0.2086933E+02  0.3893599E-09  0.3893599E-09  0.3893599E-09  0.5000000E-15
  1.000000000000000E-004
  CAR 
 Si0.5Ge0.5 zincblende primitive PBESol  
    8   82   24
 
  0.5000000E+00  0.5000000E+00  0.5000000E+00  0.1219512E-01
   1       -5.483564
   2       -2.523389
   3        3.508646
   4        3.508646
   5        5.751055
   6        8.339788
   7        8.339788
   8       12.079230
   9       15.561764
  10       15.561764
  11       15.674004
  12       16.775277
  13       16.775277
  14       17.164669
  15       23.768161
  16       24.920824
  17       25.997296
  18       25.997296
  19       27.286253
  20       27.286253
  21       30.379521
  22       30.777938
  23       30.777958
  24       32.054737
 
  0.4761900E+00  0.4761900E+00  0.4761900E+00  0.1219512E-01
   1       -5.512507
   2       -2.479888
   3        3.513158
   4        3.513158
   5        5.755828
   6        8.343301
   7        8.343301
   8       12.086830
   9       15.391353
  10       15.391353
  11       15.528527
  12       16.961430
  13       16.961430
  14       17.301854
  15       23.421524
  16       25.287191
  17       25.707617
  18       25.707617
  19       27.564290
  20       27.564290
  21       30.097491
  22       30.787825
  23       30.787841
  24       32.335098
 
  0.4523810E+00  0.4523810E+00  0.4523810E+00  0.1219512E-01
   1       -5.594360
   2       -2.354271
   3        3.527042
   4        3.527042
   5        5.770262
   6        8.354228
   7        8.354228
   8       12.109295
   9       15.041062
  10       15.041062
  11       15.193099
  12       17.366869
  13       17.366869
  14       17.607738
  15       22.824344
  16       25.150595
  17       25.150595
  18       25.945948
  19       28.088217
  20       28.088217
  21       29.525252
  22       30.832384
  23       30.832394
  24       32.779790
 
  0.4285710E+00  0.4285710E+00  0.4285710E+00  0.1219512E-01
   1       -5.717189
   2       -2.158528
   3        3.550154
   4        3.550154
   5        5.794348
   6        8.371339
   7        8.371339
   8       12.145046
   9       14.648971
  10       14.648971
  11       14.785542
  12       17.851169
  13       17.851169
  14       17.946028
  15       22.235751
  16       24.536719
  17       24.536719
  18       26.633493
  19       28.620085
  20       28.620086
  21       28.912034
  22       30.929593
  23       30.929671
  24       32.758970
 
  0.4047620E+00  0.4047620E+00  0.4047620E+00  0.1219512E-01
   1       -5.867403
   2       -1.906382
   3        3.582433
   4        3.582433
   5        5.827958
   6        8.392927
   7        8.392927
   8       12.190389
   9       14.259241
  10       14.259241
  11       14.356973
  12       18.224369
  13       18.369381
  14       18.369381
  15       21.741294
  16       23.917500
  17       23.917500
  18       27.162296
  19       28.464466
  20       29.066623
  21       29.066623
  22       31.109936
  23       31.109951
  24       32.752939
 
  0.3809520E+00  0.3809520E+00  0.3809520E+00  0.1219512E-01
   1       -6.033348
   2       -1.609849
   3        3.623785
   4        3.623785
   5        5.870904
   6        8.416439
   7        8.416439
   8       12.237319
   9       13.887524
  10       13.887524
  11       13.932690
  12       18.347474
  13       18.900232
  14       18.900232
  15       21.429273
  16       23.313230
  17       23.313230
  18       27.045297
  19       28.675180
  20       29.371662
  21       29.371662
  22       31.375253
  23       31.375397
  24       32.807421
 
  0.3571430E+00  0.3571430E+00  0.3571430E+00  0.1219512E-01
   1       -6.206162
   2       -1.277925
   3        3.674044
   4        3.674044
   5        5.923124
   6        8.438433
   7        8.438433
   8       12.266396
   9       13.538920
  10       13.542865
  11       13.542865
  12       18.235077
  13       19.424592
  14       19.424592
  15       21.378744
  16       22.744291
  17       22.744291
  18       26.494692
  19       29.337739
  20       29.536383
  21       29.536383
  22       31.636696
  23       31.636746
  24       33.006468
 
  0.3333330E+00  0.3333330E+00  0.3333330E+00  0.1219512E-01
   1       -6.379606
   2       -0.917213
   3        3.733075
   4        3.733075
   5        5.984286
   6        8.454740
   7        8.454740
   8       12.228075
   9       13.226403
  10       13.233008
  11       13.233008
  12       17.902805
  13       19.901176
  14       19.901176
  15       21.568201
  16       22.252355
  17       22.252355
  18       25.871410
  19       29.604401
  20       29.604401
  21       30.085989
  22       31.777299
  23       31.777832
  24       33.424951
 
  0.3095240E+00  0.3095240E+00  0.3095240E+00  0.1219512E-01
   1       -6.549300
   2       -0.532383
   3        3.800727
   4        3.800727
   5        6.054393
   6        8.460755
   7        8.460755
   8       12.046285
   9       12.965854
  10       12.965854
  11       13.071420
  12       17.441233
  13       20.213610
  14       20.213610
  15       21.910163
  16       21.958112
  17       21.958112
  18       25.253086
  19       29.623500
  20       29.623500
  21       30.852241
  22       31.801515
  23       31.801569
  24       33.723978
 
  0.2857140E+00  0.2857140E+00  0.2857140E+00  0.1219512E-01
   1       -6.712265
   2       -0.127128
   3        3.876343
   4        3.876343
   5        6.132587
   6        8.449950
   7        8.449950
   8       11.723098
   9       12.744561
  10       12.744561
  11       13.066875
  12       16.926940
  13       20.159295
  14       20.159295
  15       22.055640
  16       22.055640
  17       22.309041
  18       24.674763
  19       29.603382
  20       29.603382
  21       31.594578
  22       31.761937
  23       31.761950
  24       33.593483
 
  0.2619050E+00  0.2619050E+00  0.2619050E+00  0.1219512E-01
   1       -6.866293
   2        0.295790
   3        3.959576
   4        3.959576
   5        6.218396
   6        8.418003
   7        8.418003
   8       11.330183
   9       12.577216
  10       12.577216
  11       13.133736
  12       16.408883
  13       19.807825
  14       19.807825
  15       22.481309
  16       22.481309
  17       22.660181
  18       24.209235
  19       29.568034
  20       29.568034
  21       31.696440
  22       31.696442
  23       32.270107
  24       33.469900
 
  0.2380950E+00  0.2380950E+00  0.2380950E+00  0.1219512E-01
   1       -7.009891
   2        0.734023
   3        4.049699
   4        4.049699
   5        6.310868
   6        8.361344
   7        8.361344
   8       10.908558
   9       12.466501
  10       12.466501
  11       13.216316
  12       15.922611
  13       19.348260
  14       19.348260
  15       22.728017
  16       23.043303
  17       23.043303
  18       24.073142
  19       29.524898
  20       29.524898
  21       31.619859
  22       31.619859
  23       32.778262
  24       33.352109
 
  0.2142860E+00  0.2142860E+00  0.2142860E+00  0.1219512E-01
   1       -7.141902
   2        1.185389
   3        4.145789
   4        4.145789
   5        6.408862
   6        8.279170
   7        8.279170
   8       10.474069
   9       12.414638
  10       12.414638
  11       13.273737
  12       15.506387
  13       18.862871
  14       18.862871
  15       22.405682
  16       23.661154
  17       23.661154
  18       24.365806
  19       29.480578
  20       29.480578
  21       31.540349
  22       31.540349
  23       32.998178
  24       33.241829
 
  0.1904760E+00  0.1904760E+00  0.1904760E+00  0.1219512E-01
   1       -7.261529
   2        1.647647
   3        4.246554
   4        4.246554
   5        6.510517
   6        8.173686
   7        8.173686
   8       10.032025
   9       12.418930
  10       12.418930
  11       13.260782
  12       15.206581
  13       18.378512
  14       18.378512
  15       21.937476
  16       24.305939
  17       24.305939
  18       24.834613
  19       29.439142
  20       29.439143
  21       31.461795
  22       31.461797
  23       32.942305
  24       33.140348
 
  0.1666670E+00  0.1666670E+00  0.1666670E+00  0.1219512E-01
   1       -7.368113
   2        2.118410
   3        4.350412
   4        4.350412
   5        6.613606
   6        8.050222
   7        8.050222
   8        9.585795
   9       12.475425
  10       12.475425
  11       13.140957
  12       15.063898
  13       17.908124
  14       17.908124
  15       21.447141
  16       24.966610
  17       24.966610
  18       25.356243
  19       29.408240
  20       29.408241
  21       31.387452
  22       31.387466
  23       32.739937
  24       33.049193
 
  0.1428570E+00  0.1428570E+00  0.1428570E+00  0.1219512E-01
   1       -7.461240
   2        2.594499
   3        4.454711
   4        4.454711
   5        6.714426
   6        7.915576
   7        7.915576
   8        9.137477
   9       12.574043
  10       12.574043
  11       12.924676
  12       15.069730
  13       17.457961
  14       17.457961
  15       20.969843
  16       25.627399
  17       25.627399
  18       25.890920
  19       29.385392
  20       29.385392
  21       31.315915
  22       31.315916
  23       32.460937
  24       32.968280
 
  0.1190480E+00  0.1190480E+00  0.1190480E+00  0.1219512E-01
   1       -7.540516
   2        3.071754
   3        4.556492
   4        4.556492
   5        6.807936
   6        7.778343
   7        7.778343
   8        8.691542
   9       12.662749
  10       12.706404
  11       12.706404
  12       15.174692
  13       17.035650
  14       17.035650
  15       20.521783
  16       26.278312
  17       26.278312
  18       26.424414
  19       29.381354
  20       29.381355
  21       31.247679
  22       31.247825
  23       32.143063
  24       32.898990
 
  0.9523800E-01  0.9523800E-01  0.9523800E-01  0.1219512E-01
   1       -7.605689
   2        3.543433
   3        4.651709
   4        4.651709
   5        6.885360
   6        7.647445
   7        7.647445
   8        8.257239
   9       12.403040
  10       12.860896
  11       12.860896
  12       15.329218
  13       16.649477
  14       16.649477
  15       20.115350
  16       26.899441
  17       26.899441
  18       26.938290
  19       29.408272
  20       29.408272
  21       31.179842
  22       31.179842
  23       31.802123
  24       32.841378
 
  0.7142900E-01  0.7142900E-01  0.7142900E-01  0.1219512E-01
   1       -7.656577
   2        3.997464
   3        4.735273
   4        4.735273
   5        6.929531
   6        7.532031
   7        7.532031
   8        7.857269
   9       12.176749
  10       13.022094
  11       13.022094
  12       15.496772
  13       16.311294
  14       16.311294
  15       19.764907
  16       27.414371
  17       27.454634
  18       27.454634
  19       29.486988
  20       29.486988
  21       31.105358
  22       31.105372
  23       31.458401
  24       32.796494
 
  0.4761900E-01  0.4761900E-01  0.4761900E-01  0.1219512E-01
   1       -7.693024
   2        4.410285
   3        4.801353
   4        4.801353
   5        6.902522
   6        7.441057
   7        7.441057
   8        7.547335
   9       12.003101
  10       13.169862
  11       13.169862
  12       15.647632
  13       16.038917
  14       16.038917
  15       19.488821
  16       27.825510
  17       27.888909
  18       27.888909
  19       29.645331
  20       29.645331
  21       31.011543
  22       31.011545
  23       31.142108
  24       32.765261
 
  0.2381000E-01  0.2381000E-01  0.2381000E-01  0.1219512E-01
   1       -7.714922
   2        4.729733
   3        4.844051
   4        4.844051
   5        6.782354
   6        7.382563
   7        7.382563
   8        7.396130
   9       11.894239
  10       13.276932
  11       13.276932
  12       15.753884
  13       15.857109
  14       15.857109
  15       19.309188
  16       28.121906
  17       28.150540
  18       28.150540
  19       29.869067
  20       29.869067
  21       30.889650
  22       30.889658
  23       30.902805
  24       32.748019
 
  0.0000000E+00  0.0000000E+00  0.0000000E+00  0.1219512E-01
   1       -7.722216
   2        4.858871
   3        4.858871
   4        4.858871
   5        6.703509
   6        7.362348
   7        7.362348
   8        7.362348
   9       11.857169
  10       13.317000
  11       13.317000
  12       15.792480
  13       15.792480
  14       15.792480
  15       19.246409
  16       28.233913
  17       28.233913
  18       28.233913
  19       30.002404
  20       30.002405
  21       30.809849
  22       30.809851
  23       30.809866
  24       32.737846
 
  0.2083300E-01  0.0000000E+00  0.2083300E-01  0.1219512E-01
   1       -7.714769
   2        4.767607
   3        4.822032
   4        4.822032
   5        6.792698
   6        7.340447
   7        7.408302
   8        7.408302
   9       11.894988
  10       13.228778
  11       13.324520
  12       15.806854
  13       15.806854
  14       15.854940
  15       19.311170
  16       28.097783
  17       28.097784
  18       28.232756
  19       29.837570
  20       29.868209
  21       30.888195
  22       30.888204
  23       30.927832
  24       32.812132
 
  0.4166700E-01  0.0000000E+00  0.4166700E-01  0.1219512E-01
   1       -7.692401
   2        4.533607
   3        4.719054
   4        4.719054
   5        7.017938
   6        7.278514
   7        7.538592
   8        7.538592
   9       12.005892
  10       12.994362
  11       13.347076
  12       15.849991
  13       15.849991
  14       16.013751
  15       19.503467
  16       27.744987
  17       27.744988
  18       28.225348
  19       29.429293
  20       29.585137
  21       31.064657
  22       31.064659
  23       31.164044
  24       33.035397
 
  0.6250000E-01  0.0000000E+00  0.6250000E-01  0.1219512E-01
   1       -7.655131
   2        4.220855
   3        4.567194
   4        4.567194
   5        7.165597
   6        7.329026
   7        7.735865
   8        7.735865
   9       12.182290
  10       12.676613
  11       13.384648
  12       15.921915
  13       15.921915
  14       16.217704
  15       19.816418
  16       27.268415
  17       27.268415
  18       28.195888
  19       28.902888
  20       29.273287
  21       31.250222
  22       31.250224
  23       31.415539
  24       33.404174
 
  0.8333300E-01  0.0000000E+00  0.8333300E-01  0.1219512E-01
   1       -7.603008
   2        3.868939
   3        4.384266
   4        4.384266
   5        7.043543
   6        7.645940
   7        7.982139
   8        7.982139
   9       12.303748
  10       12.440494
  11       13.437207
  12       16.022665
  13       16.022665
  14       16.432622
  15       20.237413
  16       26.729366
  17       26.729366
  18       28.104008
  19       28.326439
  20       29.005339
  21       31.408110
  22       31.408110
  23       31.650567
  24       33.889739
 
  0.1041670E+00  0.0000000E+00  0.1041670E+00  0.1219512E-01
   1       -7.536093
   2        3.497169
   3        4.184030
   4        4.184030
   5        6.897525
   6        7.960269
   7        8.263238
   8        8.263238
   9       11.975173
  10       12.712826
  11       13.504713
  12       16.152134
  13       16.152134
  14       16.645566
  15       20.749558
  16       26.158660
  17       26.158660
  18       27.730450
  19       27.892064
  20       28.850513
  21       31.539726
  22       31.539729
  23       31.855281
  24       34.460100
 
  0.1250000E+00  0.0000000E+00  0.1250000E+00  0.1219512E-01
   1       -7.454434
   2        3.115223
   3        3.976216
   4        3.976216
   5        6.739641
   6        8.237174
   7        8.569480
   8        8.569480
   9       11.680177
  10       13.039644
  11       13.587095
  12       16.310511
  13       16.310511
  14       16.856039
  15       21.334666
  16       25.575570
  17       25.575570
  18       27.129378
  19       27.562824
  20       28.814233
  21       31.657205
  22       31.657210
  23       32.019083
  24       35.050570
 
  0.1458330E+00  0.0000000E+00  0.1458330E+00  0.1219512E-01
   1       -7.358113
   2        2.727997
   3        3.767166
   4        3.767166
   5        6.576523
   6        8.439532
   7        8.894143
   8        8.894143
   9       11.474439
  10       13.401820
  11       13.684281
  12       16.497632
  13       16.497632
  14       17.068918
  15       21.976098
  16       24.989356
  17       24.989356
  18       26.530797
  19       27.171977
  20       28.850611
  21       31.769095
  22       31.769105
  23       32.140836
  24       35.610789
 
  0.1666670E+00  0.0000000E+00  0.1666670E+00  0.1219512E-01
   1       -7.247251
   2        2.338188
   3        3.561089
   4        3.561089
   5        6.413161
   6        8.528409
   7        9.232461
   8        9.232461
   9       11.399885
  10       13.792850
  11       13.796166
  12       16.713012
  13       16.713012
  14       17.288996
  15       22.658456
  16       24.403851
  17       24.403851
  18       25.939006
  19       26.754540
  20       28.927408
  21       31.879634
  22       31.879635
  23       32.205525
  24       35.906252
 
  0.1875000E+00  0.0000000E+00  0.1875000E+00  0.1219512E-01
   1       -7.121963
   2        1.947540
   3        3.361071
   4        3.361071
   5        6.253636
   6        8.486003
   7        9.581441
   8        9.581441
   9       11.476839
  10       13.922601
  11       14.207431
  12       16.956419
  13       16.956419
  14       17.521069
  15       23.366147
  16       23.826450
  17       23.826450
  18       25.356821
  19       26.332591
  20       29.035309
  21       31.991142
  22       31.991142
  23       32.198896
  24       35.613400
 
  0.2083330E+00  0.0000000E+00  0.2083330E+00  0.1219512E-01
   1       -6.982371
   2        1.557097
   3        3.169158
   4        3.169158
   5        6.100927
   6        8.332737
   7        9.938844
   8        9.938844
   9       11.686771
  10       14.063459
  11       14.640909
  12       17.226975
  13       17.226975
  14       17.770298
  15       23.259388
  16       23.259388
  17       24.076667
  18       24.786120
  19       25.929073
  20       29.170587
  21       32.101550
  22       32.101550
  23       32.106662
  24       35.000845
 
  0.2291670E+00  0.0000000E+00  0.2291670E+00  0.1219512E-01
   1       -6.828705
   2        1.167487
   3        2.986698
   4        2.986698
   5        5.957048
   6        8.108380
   7       10.302297
   8       10.302297
   9       11.988862
  10       14.217439
  11       15.088322
  12       17.522024
  13       17.522024
  14       18.036362
  15       22.704437
  16       22.704437
  17       24.226536
  18       24.696944
  19       25.626518
  20       29.329978
  21       31.898338
  22       32.199305
  23       32.199310
  24       34.307358
 
  0.2500000E+00  0.0000000E+00  0.2500000E+00  0.1219512E-01
   1       -6.661144
   2        0.779444
   3        2.815000
   4        2.815000
   5        5.823966
   6        7.847934
   7       10.670593
   8       10.670593
   9       12.348803
  10       14.385932
  11       15.544506
  12       17.838293
  13       17.838293
  14       18.322810
  15       22.166444
  16       22.166444
  17       23.682270
  18       24.799242
  19       25.846216
  20       29.518833
  21       31.570051
  22       32.248163
  23       32.248213
  24       33.631950
 
  0.2708330E+00  0.0000000E+00  0.2708330E+00  0.1219512E-01
   1       -6.479880
   2        0.393800
   3        2.655074
   4        2.655074
   5        5.703627
   6        7.575087
   7       11.043828
   8       11.043828
   9       12.743802
  10       14.568257
  11       16.003526
  12       18.170330
  13       18.170331
  14       18.632275
  15       21.656403
  16       21.656403
  17       23.153810
  18       24.494435
  19       26.467365
  20       29.750901
  21       31.146088
  22       32.109263
  23       32.109667
  24       33.140852
 
  0.2916670E+00  0.0000000E+00  0.2916670E+00  0.1219512E-01
   1       -6.285268
   2        0.010924
   3        2.507374
   4        2.507374
   5        5.596708
   6        7.303344
   7       11.419540
   8       11.419540
   9       13.158123
  10       14.763171
  11       16.456837
  12       18.500584
  13       18.500584
  14       18.965201
  15       21.186837
  16       21.186837
  17       22.641488
  18       24.147159
  19       27.100727
  20       29.982696
  21       30.697985
  22       31.602148
  23       31.602153
  24       33.019405
 
  0.3125000E+00  0.0000000E+00  0.3125000E+00  0.1219512E-01
   1       -6.077653
   2       -0.368456
   3        2.372510
   4        2.372510
   5        5.504218
   6        7.041031
   7       11.797514
   8       11.797514
   9       13.582605
  10       14.970072
  11       16.893687
  12       18.790530
  13       18.790530
  14       19.322055
  15       20.798409
  16       20.798409
  17       22.146589
  18       23.823186
  19       27.650896
  20       29.851227
  21       30.638103
  22       30.905491
  23       30.905498
  24       32.381450
 
  0.3333330E+00  0.0000000E+00  0.3333330E+00  0.1219512E-01
   1       -5.857454
   2       -0.743611
   3        2.250878
   4        2.250878
   5        5.426888
   6        6.793184
   7       12.176733
   8       12.176733
   9       14.010738
  10       15.187478
  11       17.299018
  12       18.944090
  13       18.944090
  14       19.702520
  15       20.586498
  16       20.586498
  17       21.669875
  18       23.548433
  19       28.046320
  20       29.349627
  21       30.158862
  22       30.158863
  23       30.954232
  24       31.719411
 
  0.3541670E+00  0.0000000E+00  0.3541670E+00  0.1219512E-01
   1       -5.625238
   2       -1.113568
   3        2.142918
   4        2.142918
   5        5.365351
   6        6.563007
   7       12.556975
   8       12.556975
   9       14.437899
  10       15.414517
  11       17.652697
  12       18.850881
  13       18.850881
  14       20.106784
  15       20.665146
  16       20.665146
  17       21.214611
  18       23.348093
  19       28.127369
  20       28.942691
  21       29.404000
  22       29.404000
  23       30.721197
  24       31.790199
 
  0.3750000E+00  0.0000000E+00  0.3750000E+00  0.1219512E-01
   1       -5.381846
   2       -1.477213
   3        2.048843
   4        2.048843
   5        5.319908
   6        6.352609
   7       12.935052
   8       12.935052
   9       14.859190
  10       15.649764
  11       17.929965
  12       18.558410
  13       18.558410
  14       20.531248
  15       20.783320
  16       20.984529
  17       20.984529
  18       23.247682
  19       27.730177
  20       28.651065
  21       28.651066
  22       28.774901
  23       30.220782
  24       32.263026
 
  0.3958330E+00  0.0000000E+00  0.3958330E+00  0.1219512E-01
   1       -5.128427
   2       -1.833042
   3        1.968870
   4        1.968870
   5        5.290727
   6        6.163351
   7       13.308495
   8       13.308495
   9       15.270646
  10       15.885842
  11       18.107320
  12       18.186332
  13       18.186332
  14       20.379248
  15       20.973559
  16       21.428048
  17       21.428048
  18       23.272303
  19       27.144721
  20       27.907175
  21       27.907175
  22       28.449936
  23       29.980978
  24       32.597106
 
  0.4166670E+00  0.0000000E+00  0.4166670E+00  0.1219512E-01
   1       -4.866930
   2       -2.178816
   3        1.903200
   4        1.903200
   5        5.277657
   6        5.996682
   7       13.672390
   8       13.672390
   9       15.667212
  10       16.120210
  11       17.797032
  12       17.797032
  13       18.172459
  14       20.008944
  15       21.430163
  16       21.937132
  17       21.937132
  18       23.434477
  19       26.531527
  20       27.175960
  21       27.175961
  22       27.890073
  23       29.985671
  24       32.710365
 
  0.4375000E+00  0.0000000E+00  0.4375000E+00  0.1219512E-01
   1       -4.601330
   2       -2.510259
   3        1.851987
   4        1.851987
   5        5.279496
   6        5.854367
   7       14.015422
   8       14.015422
   9       16.040007
  10       16.338064
  11       17.423959
  12       17.423959
  13       18.133232
  14       19.683928
  15       21.894390
  16       22.486622
  17       22.486622
  18       23.724903
  19       25.937340
  20       26.463010
  21       26.463010
  22       27.243188
  23       30.067832
  24       32.696913
 
  0.4583330E+00  0.0000000E+00  0.4583330E+00  0.1219512E-01
   1       -4.340859
   2       -2.817902
   3        1.815333
   4        1.815333
   5        5.293464
   6        5.739974
   7       14.317696
   8       14.317696
   9       16.373435
  10       16.524654
  11       17.096473
  12       17.096473
  13       18.019367
  14       19.420749
  15       22.350055
  16       23.061990
  17       23.061990
  18       24.110581
  19       25.404013
  20       25.774240
  21       25.774240
  22       26.586956
  23       30.154139
  24       32.649711
 
  0.4791670E+00  0.0000000E+00  0.4791670E+00  0.1219512E-01
   1       -4.113534
   2       -3.073604
   3        1.793348
   4        1.793348
   5        5.312268
   6        5.660748
   7       14.540985
   8       14.540985
   9       16.631217
  10       16.656702
  11       16.858645
  12       16.858645
  13       17.884712
  14       19.244147
  15       22.734007
  16       23.638266
  17       23.638266
  18       24.476426
  19       25.071972
  20       25.131806
  21       25.131806
  22       25.960456
  23       30.216412
  24       32.606328
 
  0.5000000E+00  0.0000000E+00  0.5000000E+00  0.1219512E-01
   1       -4.006865
   2       -3.189684
   3        1.786004
   4        1.786004
   5        5.321806
   6        5.631139
   7       14.626411
   8       14.626411
   9       16.704606
  10       16.736965
  11       16.768215
  12       16.768215
  13       17.818436
  14       19.181053
  15       22.906577
  16       24.015953
  17       24.015953
  18       24.529019
  19       24.732426
  20       24.732426
  21       25.227620
  22       25.512392
  23       30.238178
  24       32.590885
 
  0.5156250E+00  0.3125000E-01  0.5156250E+00  0.1219512E-01
   1       -4.005003
   2       -3.186520
   3        1.729520
   4        1.793185
   5        5.363948
   6        5.682819
   7       14.552210
   8       14.556891
   9       16.371950
  10       16.398253
  11       17.000639
  12       17.113079
  13       18.006110
  14       19.237802
  15       22.781248
  16       23.920603
  17       24.043782
  18       24.267901
  19       24.754165
  20       25.051206
  21       25.318278
  22       25.635552
  23       30.131196
  24       32.408422
 
  0.5312500E+00  0.6250000E-01  0.5312500E+00  0.1219512E-01
   1       -4.000356
   2       -3.176622
   3        1.576418
   4        1.814772
   5        5.441465
   6        5.871450
   7       14.354566
   8       14.365242
   9       15.961804
  10       16.017696
  11       17.245363
  12       17.508472
  13       18.420595
  14       19.396793
  15       22.475691
  16       23.535549
  17       24.127736
  18       24.207303
  19       24.820144
  20       25.314480
  21       25.580997
  22       26.017470
  23       29.821539
  24       32.059343
 
  0.5468750E+00  0.9375000E-01  0.5468750E+00  0.1219512E-01
   1       -3.995933
   2       -3.158735
   3        1.362509
   4        1.850593
   5        5.508515
   6        6.208038
   7       14.076487
   8       14.085831
   9       15.497522
  10       15.660016
  11       17.532548
  12       17.920516
  13       18.910684
  14       19.631315
  15       22.083535
  16       23.076719
  17       24.223269
  18       24.266056
  19       24.931963
  20       25.470554
  21       25.991495
  22       26.534017
  23       29.346841
  24       31.700927
 
  0.5625000E+00  0.1250000E+00  0.5625000E+00  0.1219512E-01
   1       -3.996778
   2       -3.130353
   3        1.123629
   4        1.900522
   5        5.574295
   6        6.650433
   7       13.753940
   8       13.754799
   9       15.030796
  10       15.299216
  11       17.850023
  12       18.343816
  13       19.419501
  14       19.914104
  15       21.660493
  16       22.632323
  17       24.249019
  18       24.459985
  19       25.093022
  20       25.636028
  21       26.436358
  22       27.090933
  23       28.791339
  24       31.346849
 
  0.5781250E+00  0.1562500E+00  0.5781250E+00  0.1219512E-01
   1       -4.009932
   2       -3.087970
   3        0.887366
   4        1.964227
   5        5.648075
   6        7.163644
   7       13.393106
   8       13.411108
   9       14.570613
  10       14.936584
  11       18.179065
  12       18.768775
  13       19.908613
  14       20.224004
  15       21.229855
  16       22.233182
  17       24.269408
  18       24.705479
  19       25.307615
  20       25.825699
  21       26.835339
  22       27.607174
  23       28.303936
  24       30.984929
 
  0.5937500E+00  0.1875000E+00  0.5937500E+00  0.1219512E-01
   1       -4.043251
   2       -3.027410
   3        0.673292
   4        2.041411
   5        5.733282
   6        7.727970
   7       13.019146
   8       13.058932
   9       14.121753
  10       14.577318
  11       18.504139
  12       19.190384
  13       20.310756
  14       20.547686
  15       20.809037
  16       21.935635
  17       24.277727
  18       24.998600
  19       25.581413
  20       26.010145
  21       26.987790
  22       27.736264
  23       28.454882
  24       30.642816
 
  0.6093750E+00  0.2187500E+00  0.6093750E+00  0.1219512E-01
   1       -4.103764
   2       -2.944995
   3        0.494831
   4        2.131584
   5        5.830781
   6        8.330178
   7       12.641114
   8       12.705790
   9       13.686832
  10       14.224597
  11       18.804985
  12       19.601837