<?xml version="1.0" encoding="ISO-8859-1"?>
<modeling>
 <generator>
  <i name="program" type="string">vasp </i>
  <i name="version" type="string">5.4.1  </i>
  <i name="subversion" type="string">05Feb16 (build Aug 05 2016 10:15:40) complex                          parallel </i>
  <i name="platform" type="string">15.0.1.133-OMPI-1.10.2 </i>
  <i name="date" type="string">2017 05 12 </i>
  <i name="time" type="string">04:06:37 </i>
 </generator>
 <incar>
  <i type="string" name="SYSTEM"> diamond_primitive_PBE</i>
  <i type="int" name="ISTART">     1</i>
  <i type="string" name="PREC">accurate    ! 1.3encut</i>
  <i type="string" name="ALGO"> Normal      ! blocked Davidson iteratio</i>
  <i type="int" name="ISPIN">     1</i>
  <i type="int" name="ICHARG">    11</i>
  <i type="int" name="IBRION">    -1</i>
  <i type="int" name="ISYM">     2</i>
  <i type="int" name="NBANDS">    12</i>
  <i type="int" name="ISMEAR">     0</i>
  <i type="logical" name="LORBIT"> F  </i>
  <v type="int" name="KPOINT_BSE">    -1     0     0     0</v>
 </incar>
 <kpoints>
  <generation param="listgenerated">
   <i name="divisions" type="int">      40 </i>
   <v>       0.00000000       0.00000000       0.00000000 </v>
   <v>       0.50000000       0.00000000       0.50000000 </v>
   <v>       0.50000000       0.25000000       0.75000000 </v>
   <v>       0.37500000       0.37500000       0.75000000 </v>
   <v>       0.00000000       0.00000000       0.00000000 </v>
   <v>       0.50000000       0.50000000       0.50000000 </v>
   <v>       0.62500000       0.25000000       0.62500000 </v>
   <v>       0.50000000       0.25000000       0.75000000 </v>
   <v>       0.50000000       0.50000000       0.50000000 </v>
   <v>       0.62500000       0.25000000       0.62500000 </v>
   <v>       0.50000000       0.00000000       0.50000000 </v>
  </generation>
  <varray name="kpointlist" >
   <v>       0.00000000       0.00000000       0.00000000 </v>
   <v>       0.01282051       0.00000000       0.01282051 </v>
   <v>       0.02564103       0.00000000       0.02564103 </v>
   <v>       0.03846154       0.00000000       0.03846154 </v>
   <v>       0.05128205       0.00000000       0.05128205 </v>
   <v>       0.06410256       0.00000000       0.06410256 </v>
   <v>       0.07692308       0.00000000       0.07692308 </v>
   <v>       0.08974359       0.00000000       0.08974359 </v>
   <v>       0.10256410       0.00000000       0.10256410 </v>
   <v>       0.11538462       0.00000000       0.11538462 </v>
   <v>       0.12820513       0.00000000       0.12820513 </v>
   <v>       0.14102564       0.00000000       0.14102564 </v>
   <v>       0.15384615       0.00000000       0.15384615 </v>
   <v>       0.16666667       0.00000000       0.16666667 </v>
   <v>       0.17948718       0.00000000       0.17948718 </v>
   <v>       0.19230769       0.00000000       0.19230769 </v>
   <v>       0.20512821       0.00000000       0.20512821 </v>
   <v>       0.21794872       0.00000000       0.21794872 </v>
   <v>       0.23076923       0.00000000       0.23076923 </v>
   <v>       0.24358974       0.00000000       0.24358974 </v>
   <v>       0.25641026       0.00000000       0.25641026 </v>
   <v>       0.26923077       0.00000000       0.26923077 </v>
   <v>       0.28205128       0.00000000       0.28205128 </v>
   <v>       0.29487179       0.00000000       0.29487179 </v>
   <v>       0.30769231       0.00000000       0.30769231 </v>
   <v>       0.32051282       0.00000000       0.32051282 </v>
   <v>       0.33333333       0.00000000       0.33333333 </v>
   <v>       0.34615385       0.00000000       0.34615385 </v>
   <v>       0.35897436       0.00000000       0.35897436 </v>
   <v>       0.37179487       0.00000000       0.37179487 </v>
   <v>       0.38461538       0.00000000       0.38461538 </v>
   <v>       0.39743590       0.00000000       0.39743590 </v>
   <v>       0.41025641       0.00000000       0.41025641 </v>
   <v>       0.42307692       0.00000000       0.42307692 </v>
   <v>       0.43589744       0.00000000       0.43589744 </v>
   <v>       0.44871795       0.00000000       0.44871795 </v>
   <v>       0.46153846       0.00000000       0.46153846 </v>
   <v>       0.47435897       0.00000000       0.47435897 </v>
   <v>       0.48717949       0.00000000       0.48717949 </v>
   <v>       0.50000000       0.00000000       0.50000000 </v>
   <v>       0.50000000       0.00000000       0.50000000 </v>
   <v>       0.50000000       0.00641026       0.50641026 </v>
   <v>       0.50000000       0.01282051       0.51282051 </v>
   <v>       0.50000000       0.01923077       0.51923077 </v>
   <v>       0.50000000       0.02564103       0.52564103 </v>
   <v>       0.50000000       0.03205128       0.53205128 </v>
   <v>       0.50000000       0.03846154       0.53846154 </v>
   <v>       0.50000000       0.04487179       0.54487179 </v>
   <v>       0.50000000       0.05128205       0.55128205 </v>
   <v>       0.50000000       0.05769231       0.55769231 </v>
   <v>       0.50000000       0.06410256       0.56410256 </v>
   <v>       0.50000000       0.07051282       0.57051282 </v>
   <v>       0.50000000       0.07692308       0.57692308 </v>
   <v>       0.50000000       0.08333333       0.58333333 </v>
   <v>       0.50000000       0.08974359       0.58974359 </v>
   <v>       0.50000000       0.09615385       0.59615385 </v>
   <v>       0.50000000       0.10256410       0.60256410 </v>
   <v>       0.50000000       0.10897436       0.60897436 </v>
   <v>       0.50000000       0.11538462       0.61538462 </v>
   <v>       0.50000000       0.12179487       0.62179487 </v>
   <v>       0.50000000       0.12820513       0.62820513 </v>
   <v>       0.50000000       0.13461538       0.63461538 </v>
   <v>       0.50000000       0.14102564       0.64102564 </v>
   <v>       0.50000000       0.14743590       0.64743590 </v>
   <v>       0.50000000       0.15384615       0.65384615 </v>
   <v>       0.50000000       0.16025641       0.66025641 </v>
   <v>       0.50000000       0.16666667       0.66666667 </v>
   <v>       0.50000000       0.17307692       0.67307692 </v>
   <v>       0.50000000       0.17948718       0.67948718 </v>
   <v>       0.50000000       0.18589744       0.68589744 </v>
   <v>       0.50000000       0.19230769       0.69230769 </v>
   <v>       0.50000000       0.19871795       0.69871795 </v>
   <v>       0.50000000       0.20512821       0.70512821 </v>
   <v>       0.50000000       0.21153846       0.71153846 </v>
   <v>       0.50000000       0.21794872       0.71794872 </v>
   <v>       0.50000000       0.22435897       0.72435897 </v>
   <v>       0.50000000       0.23076923       0.73076923 </v>
   <v>       0.50000000       0.23717949       0.73717949 </v>
   <v>       0.50000000       0.24358974       0.74358974 </v>
   <v>       0.50000000       0.25000000       0.75000000 </v>
   <v>       0.50000000       0.25000000       0.75000000 </v>
   <v>       0.49679487       0.25320513       0.75000000 </v>
   <v>       0.49358974       0.25641026       0.75000000 </v>
   <v>       0.49038462       0.25961538       0.75000000 </v>
   <v>       0.48717949       0.26282051       0.75000000 </v>
   <v>       0.48397436       0.26602564       0.75000000 </v>
   <v>       0.48076923       0.26923077       0.75000000 </v>
   <v>       0.47756410       0.27243590       0.75000000 </v>
   <v>       0.47435897       0.27564103       0.75000000 </v>
   <v>       0.47115385       0.27884615       0.75000000 </v>
   <v>       0.46794872       0.28205128       0.75000000 </v>
   <v>       0.46474359       0.28525641       0.75000000 </v>
   <v>       0.46153846       0.28846154       0.75000000 </v>
   <v>       0.45833333       0.29166667       0.75000000 </v>
   <v>       0.45512821       0.29487179       0.75000000 </v>
   <v>       0.45192308       0.29807692       0.75000000 </v>
   <v>       0.44871795       0.30128205       0.75000000 </v>
   <v>       0.44551282       0.30448718       0.75000000 </v>
   <v>       0.44230769       0.30769231       0.75000000 </v>
   <v>       0.43910256       0.31089744       0.75000000 </v>
   <v>       0.43589744       0.31410256       0.75000000 </v>
   <v>       0.43269231       0.31730769       0.75000000 </v>
   <v>       0.42948718       0.32051282       0.75000000 </v>
   <v>       0.42628205       0.32371795       0.75000000 </v>
   <v>       0.42307692       0.32692308       0.75000000 </v>
   <v>       0.41987179       0.33012821       0.75000000 </v>
   <v>       0.41666667       0.33333333       0.75000000 </v>
   <v>       0.41346154       0.33653846       0.75000000 </v>
   <v>       0.41025641       0.33974359       0.75000000 </v>
   <v>       0.40705128       0.34294872       0.75000000 </v>
   <v>       0.40384615       0.34615385       0.75000000 </v>
   <v>       0.40064103       0.34935897       0.75000000 </v>
   <v>       0.39743590       0.35256410       0.75000000 </v>
   <v>       0.39423077       0.35576923       0.75000000 </v>
   <v>       0.39102564       0.35897436       0.75000000 </v>
   <v>       0.38782051       0.36217949       0.75000000 </v>
   <v>       0.38461538       0.36538462       0.75000000 </v>
   <v>       0.38141026       0.36858974       0.75000000 </v>
   <v>       0.37820513       0.37179487       0.75000000 </v>
   <v>       0.37500000       0.37500000       0.75000000 </v>
   <v>       0.37500000       0.37500000       0.75000000 </v>
   <v>       0.36538462       0.36538462       0.73076923 </v>
   <v>       0.35576923       0.35576923       0.71153846 </v>
   <v>       0.34615385       0.34615385       0.69230769 </v>
   <v>       0.33653846       0.33653846       0.67307692 </v>
   <v>       0.32692308       0.32692308       0.65384615 </v>
   <v>       0.31730769       0.31730769       0.63461538 </v>
   <v>       0.30769231       0.30769231       0.61538462 </v>
   <v>       0.29807692       0.29807692       0.59615385 </v>
   <v>       0.28846154       0.28846154       0.57692308 </v>
   <v>       0.27884615       0.27884615       0.55769231 </v>
   <v>       0.26923077       0.26923077       0.53846154 </v>
   <v>       0.25961538       0.25961538       0.51923077 </v>
   <v>       0.25000000       0.25000000       0.50000000 </v>
   <v>       0.24038462       0.24038462       0.48076923 </v>
   <v>       0.23076923       0.23076923       0.46153846 </v>
   <v>       0.22115385       0.22115385       0.44230769 </v>
   <v>       0.21153846       0.21153846       0.42307692 </v>
   <v>       0.20192308       0.20192308       0.40384615 </v>
   <v>       0.19230769       0.19230769       0.38461538 </v>
   <v>       0.18269231       0.18269231       0.36538462 </v>
   <v>       0.17307692       0.17307692       0.34615385 </v>
   <v>       0.16346154       0.16346154       0.32692308 </v>
   <v>       0.15384615       0.15384615       0.30769231 </v>
   <v>       0.14423077       0.14423077       0.28846154 </v>
   <v>       0.13461538       0.13461538       0.26923077 </v>
   <v>       0.12500000       0.12500000       0.25000000 </v>
   <v>       0.11538462       0.11538462       0.23076923 </v>
   <v>       0.10576923       0.10576923       0.21153846 </v>
   <v>       0.09615385       0.09615385       0.19230769 </v>
   <v>       0.08653846       0.08653846       0.17307692 </v>
   <v>       0.07692308       0.07692308       0.15384615 </v>
   <v>       0.06730769       0.06730769       0.13461538 </v>
   <v>       0.05769231       0.05769231       0.11538462 </v>
   <v>       0.04807692       0.04807692       0.09615385 </v>
   <v>       0.03846154       0.03846154       0.07692308 </v>
   <v>       0.02884615       0.02884615       0.05769231 </v>
   <v>       0.01923077       0.01923077       0.03846154 </v>
   <v>       0.00961538       0.00961538       0.01923077 </v>
   <v>       0.00000000       0.00000000       0.00000000 </v>
   <v>       0.00000000       0.00000000       0.00000000 </v>
   <v>       0.01282051       0.01282051       0.01282051 </v>
   <v>       0.02564103       0.02564103       0.02564103 </v>
   <v>       0.03846154       0.03846154       0.03846154 </v>
   <v>       0.05128205       0.05128205       0.05128205 </v>
   <v>       0.06410256       0.06410256       0.06410256 </v>
   <v>       0.07692308       0.07692308       0.07692308 </v>
   <v>       0.08974359       0.08974359       0.08974359 </v>
   <v>       0.10256410       0.10256410       0.10256410 </v>
   <v>       0.11538462       0.11538462       0.11538462 </v>
   <v>       0.12820513       0.12820513       0.12820513 </v>
   <v>       0.14102564       0.14102564       0.14102564 </v>
   <v>       0.15384615       0.15384615       0.15384615 </v>
   <v>       0.16666667       0.16666667       0.16666667 </v>
   <v>       0.17948718       0.17948718       0.17948718 </v>
   <v>       0.19230769       0.19230769       0.19230769 </v>
   <v>       0.20512821       0.20512821       0.20512821 </v>
   <v>       0.21794872       0.21794872       0.21794872 </v>
   <v>       0.23076923       0.23076923       0.23076923 </v>
   <v>       0.24358974       0.24358974       0.24358974 </v>
   <v>       0.25641026       0.25641026       0.25641026 </v>
   <v>       0.26923077       0.26923077       0.26923077 </v>
   <v>       0.28205128       0.28205128       0.28205128 </v>
   <v>       0.29487179       0.29487179       0.29487179 </v>
   <v>       0.30769231       0.30769231       0.30769231 </v>
   <v>       0.32051282       0.32051282       0.32051282 </v>
   <v>       0.33333333       0.33333333       0.33333333 </v>
   <v>       0.34615385       0.34615385       0.34615385 </v>
   <v>       0.35897436       0.35897436       0.35897436 </v>
   <v>       0.37179487       0.37179487       0.37179487 </v>
   <v>       0.38461538       0.38461538       0.38461538 </v>
   <v>       0.39743590       0.39743590       0.39743590 </v>
   <v>       0.41025641       0.41025641       0.41025641 </v>
   <v>       0.42307692       0.42307692       0.42307692 </v>
   <v>       0.43589744       0.43589744       0.43589744 </v>
   <v>       0.44871795       0.44871795       0.44871795 </v>
   <v>       0.46153846       0.46153846       0.46153846 </v>
   <v>       0.47435897       0.47435897       0.47435897 </v>
   <v>       0.48717949       0.48717949       0.48717949 </v>
   <v>       0.50000000       0.50000000       0.50000000 </v>
   <v>       0.50000000       0.50000000       0.50000000 </v>
   <v>       0.50320513       0.49358974       0.50320513 </v>
   <v>       0.50641026       0.48717949       0.50641026 </v>
   <v>       0.50961538       0.48076923       0.50961538 </v>
   <v>       0.51282051       0.47435897       0.51282051 </v>
   <v>       0.51602564       0.46794872       0.51602564 </v>
   <v>       0.51923077       0.46153846       0.51923077 </v>
   <v>       0.52243590       0.45512821       0.52243590 </v>
   <v>       0.52564103       0.44871795       0.52564103 </v>
   <v>       0.52884615       0.44230769       0.52884615 </v>
   <v>       0.53205128       0.43589744       0.53205128 </v>
   <v>       0.53525641       0.42948718       0.53525641 </v>
   <v>       0.53846154       0.42307692       0.53846154 </v>
   <v>       0.54166667       0.41666667       0.54166667 </v>
   <v>       0.54487179       0.41025641       0.54487179 </v>
   <v>       0.54807692       0.40384615       0.54807692 </v>
   <v>       0.55128205       0.39743590       0.55128205 </v>
   <v>       0.55448718       0.39102564       0.55448718 </v>
   <v>       0.55769231       0.38461538       0.55769231 </v>
   <v>       0.56089744       0.37820513       0.56089744 </v>
   <v>       0.56410256       0.37179487       0.56410256 </v>
   <v>       0.56730769       0.36538462       0.56730769 </v>
   <v>       0.57051282       0.35897436       0.57051282 </v>
   <v>       0.57371795       0.35256410       0.57371795 </v>
   <v>       0.57692308       0.34615385       0.57692308 </v>
   <v>       0.58012821       0.33974359       0.58012821 </v>
   <v>       0.58333333       0.33333333       0.58333333 </v>
   <v>       0.58653846       0.32692308       0.58653846 </v>
   <v>       0.58974359       0.32051282       0.58974359 </v>
   <v>       0.59294872       0.31410256       0.59294872 </v>
   <v>       0.59615385       0.30769231       0.59615385 </v>
   <v>       0.59935897       0.30128205       0.59935897 </v>
   <v>       0.60256410       0.29487179       0.60256410 </v>
   <v>       0.60576923       0.28846154       0.60576923 </v>
   <v>       0.60897436       0.28205128       0.60897436 </v>
   <v>       0.61217949       0.27564103       0.61217949 </v>
   <v>       0.61538462       0.26923077       0.61538462 </v>
   <v>       0.61858974       0.26282051       0.61858974 </v>
   <v>       0.62179487       0.25641026       0.62179487 </v>
   <v>       0.62500000       0.25000000       0.62500000 </v>
   <v>       0.62500000       0.25000000       0.62500000 </v>
   <v>       0.62179487       0.25000000       0.62820513 </v>
   <v>       0.61858974       0.25000000       0.63141026 </v>
   <v>       0.61538462       0.25000000       0.63461538 </v>
   <v>       0.61217949       0.25000000       0.63782051 </v>
   <v>       0.60897436       0.25000000       0.64102564 </v>
   <v>       0.60576923       0.25000000       0.64423077 </v>
   <v>       0.60256410       0.25000000       0.64743590 </v>
   <v>       0.59935897       0.25000000       0.65064103 </v>
   <v>       0.59615385       0.25000000       0.65384615 </v>
   <v>       0.59294872       0.25000000       0.65705128 </v>
   <v>       0.58974359       0.25000000       0.66025641 </v>
   <v>       0.58653846       0.25000000       0.66346154 </v>
   <v>       0.58333333       0.25000000       0.66666667 </v>
   <v>       0.58012821       0.25000000       0.66987179 </v>
   <v>       0.57692308       0.25000000       0.67307692 </v>
   <v>       0.57371795       0.25000000       0.67628205 </v>
   <v>       0.57051282       0.25000000       0.67948718 </v>
   <v>       0.56730769       0.25000000       0.68269231 </v>
   <v>       0.56410256       0.25000000       0.68589744 </v>
   <v>       0.56089744       0.25000000       0.68910256 </v>
   <v>       0.55769231       0.25000000       0.69230769 </v>
   <v>       0.55448718       0.25000000       0.69551282 </v>
   <v>       0.55128205       0.25000000       0.69871795 </v>
   <v>       0.54807692       0.25000000       0.70192308 </v>
   <v>       0.54487179       0.25000000       0.70512821 </v>
   <v>       0.54166667       0.25000000       0.70833333 </v>
   <v>       0.53846154       0.25000000       0.71153846 </v>
   <v>       0.53525641       0.25000000       0.71474359 </v>
   <v>       0.53205128       0.25000000       0.71794872 </v>
   <v>       0.52884615       0.25000000       0.72115385 </v>
   <v>       0.52564103       0.25000000       0.72435897 </v>
   <v>       0.52243590       0.25000000       0.72756410 </v>
   <v>       0.51923077       0.25000000       0.73076923 </v>
   <v>       0.51602564       0.25000000       0.73397436 </v>
   <v>       0.51282051       0.25000000       0.73717949 </v>
   <v>       0.50961538       0.25000000       0.74038462 </v>
   <v>       0.50641026       0.25000000       0.74358974 </v>
   <v>       0.50320513       0.25000000       0.74679487 </v>
   <v>       0.50000000       0.25000000       0.75000000 </v>
   <v>       0.50000000       0.25000000       0.75000000 </v>
   <v>       0.50000000       0.25641026       0.74358974 </v>
   <v>       0.50000000       0.26282051       0.73717949 </v>
   <v>       0.50000000       0.26923077       0.73076923 </v>
   <v>       0.50000000       0.27564103       0.72435897 </v>
   <v>       0.50000000       0.28205128       0.71794872 </v>
   <v>       0.50000000       0.28846154       0.71153846 </v>
   <v>       0.50000000       0.29487179       0.70512821 </v>
   <v>       0.50000000       0.30128205       0.69871795 </v>
   <v>       0.50000000       0.30769231       0.69230769 </v>
   <v>       0.50000000       0.31410256       0.68589744 </v>
   <v>       0.50000000       0.32051282       0.67948718 </v>
   <v>       0.50000000       0.32692308       0.67307692 </v>
   <v>       0.50000000       0.33333333       0.66666667 </v>
   <v>       0.50000000       0.33974359       0.66025641 </v>
   <v>       0.50000000       0.34615385       0.65384615 </v>
   <v>       0.50000000       0.35256410       0.64743590 </v>
   <v>       0.50000000       0.35897436       0.64102564 </v>
   <v>       0.50000000       0.36538462       0.63461538 </v>
   <v>       0.50000000       0.37179487       0.62820513 </v>
   <v>       0.50000000       0.37820513       0.62179487 </v>
   <v>       0.50000000       0.38461538       0.61538462 </v>
   <v>       0.50000000       0.39102564       0.60897436 </v>
   <v>       0.50000000       0.39743590       0.60256410 </v>
   <v>       0.50000000       0.40384615       0.59615385 </v>
   <v>       0.50000000       0.41025641       0.58974359 </v>
   <v>       0.50000000       0.41666667       0.58333333 </v>
   <v>       0.50000000       0.42307692       0.57692308 </v>
   <v>       0.50000000       0.42948718       0.57051282 </v>
   <v>       0.50000000       0.43589744       0.56410256 </v>
   <v>       0.50000000       0.44230769       0.55769231 </v>
   <v>       0.50000000       0.44871795       0.55128205 </v>
   <v>       0.50000000       0.45512821       0.54487179 </v>
   <v>       0.50000000       0.46153846       0.53846154 </v>
   <v>       0.50000000       0.46794872       0.53205128 </v>
   <v>       0.50000000       0.47435897       0.52564103 </v>
   <v>       0.50000000       0.48076923       0.51923077 </v>
   <v>       0.50000000       0.48717949       0.51282051 </v>
   <v>       0.50000000       0.49358974       0.50641026 </v>
   <v>       0.50000000       0.50000000       0.50000000 </v>
   <v>       0.50000000       0.50000000       0.50000000 </v>
   <v>       0.49679487       0.49679487       0.50641026 </v>
   <v>       0.49358974       0.49358974       0.51282051 </v>
   <v>       0.49038462       0.49038462       0.51923077 </v>
   <v>       0.48717949       0.48717949       0.52564103 </v>
   <v>       0.48397436       0.48397436       0.53205128 </v>
   <v>       0.48076923       0.48076923       0.53846154 </v>
   <v>       0.47756410       0.47756410       0.54487179 </v>
   <v>       0.47435897       0.47435897       0.55128205 </v>
   <v>       0.47115385       0.47115385       0.55769231 </v>
   <v>       0.46794872       0.46794872       0.56410256 </v>
   <v>       0.46474359       0.46474359       0.57051282 </v>
   <v>       0.46153846       0.46153846       0.57692308 </v>
   <v>       0.45833333       0.45833333       0.58333333 </v>
   <v>       0.45512821       0.45512821       0.58974359 </v>
   <v>       0.45192308       0.45192308       0.59615385 </v>
   <v>       0.44871795       0.44871795       0.60256410 </v>
   <v>       0.44551282       0.44551282       0.60897436 </v>
   <v>       0.44230769       0.44230769       0.61538462 </v>
   <v>       0.43910256       0.43910256       0.62179487 </v>
   <v>       0.43589744       0.43589744       0.62820513 </v>
   <v>       0.43269231       0.43269231       0.63461538 </v>
   <v>       0.42948718       0.42948718       0.64102564 </v>
   <v>       0.42628205       0.42628205       0.64743590 </v>
   <v>       0.42307692       0.42307692       0.65384615 </v>
   <v>       0.41987179       0.41987179       0.66025641 </v>
   <v>       0.41666667       0.41666667       0.66666667 </v>
   <v>       0.41346154       0.41346154       0.67307692 </v>
   <v>       0.41025641       0.41025641       0.67948718 </v>
   <v>       0.40705128       0.40705128       0.68589744 </v>
   <v>       0.40384615       0.40384615       0.69230769 </v>
   <v>       0.40064103       0.40064103       0.69871795 </v>
   <v>       0.39743590       0.39743590       0.70512821 </v>
   <v>       0.39423077       0.39423077       0.71153846 </v>
   <v>       0.39102564       0.39102564       0.71794872 </v>
   <v>       0.38782051       0.38782051       0.72435897 </v>
   <v>       0.38461538       0.38461538       0.73076923 </v>
   <v>       0.38141026       0.38141026       0.73717949 </v>
   <v>       0.37820513       0.37820513       0.74358974 </v>
   <v>       0.37500000       0.37500000       0.75000000 </v>
   <v>       0.62500000       0.25000000       0.62500000 </v>
   <v>       0.62179487       0.24358974       0.62179487 </v>
   <v>       0.61858974       0.23717949       0.61858974 </v>
   <v>       0.61538462       0.23076923       0.61538462 </v>
   <v>       0.61217949       0.22435897       0.61217949 </v>
   <v>       0.60897436       0.21794872       0.60897436 </v>
   <v>       0.60576923       0.21153846       0.60576923 </v>
   <v>       0.60256410       0.20512821       0.60256410 </v>
   <v>       0.59935897       0.19871795       0.59935897 </v>
   <v>       0.59615385       0.19230769       0.59615385 </v>
   <v>       0.59294872       0.18589744       0.59294872 </v>
   <v>       0.58974359       0.17948718       0.58974359 </v>
   <v>       0.58653846       0.17307692       0.58653846 </v>
   <v>       0.58333333       0.16666667       0.58333333 </v>
   <v>       0.58012821       0.16025641       0.58012821 </v>
   <v>       0.57692308       0.15384615       0.57692308 </v>
   <v>       0.57371795       0.14743590       0.57371795 </v>
   <v>       0.57051282       0.14102564       0.57051282 </v>
   <v>       0.56730769       0.13461538       0.56730769 </v>
   <v>       0.56410256       0.12820513       0.56410256 </v>
   <v>       0.56089744       0.12179487       0.56089744 </v>
   <v>       0.55769231       0.11538462       0.55769231 </v>
   <v>       0.55448718       0.10897436       0.55448718 </v>
   <v>       0.55128205       0.10256410       0.55128205 </v>
   <v>       0.54807692       0.09615385       0.54807692 </v>
   <v>       0.54487179       0.08974359       0.54487179 </v>
   <v>       0.54166667       0.08333333       0.54166667 </v>
   <v>       0.53846154       0.07692308       0.53846154 </v>
   <v>       0.53525641       0.07051282       0.53525641 </v>
   <v>       0.53205128       0.06410256       0.53205128 </v>
   <v>       0.52884615       0.05769231       0.52884615 </v>
   <v>       0.52564103       0.05128205       0.52564103 </v>
   <v>       0.52243590       0.04487179       0.52243590 </v>
   <v>       0.51923077       0.03846154       0.51923077 </v>
   <v>       0.51602564       0.03205128       0.51602564 </v>
   <v>       0.51282051       0.02564103       0.51282051 </v>
   <v>       0.50961538       0.01923077       0.50961538 </v>
   <v>       0.50641026       0.01282051       0.50641026 </v>
   <v>       0.50320513       0.00641026       0.50320513 </v>
   <v>       0.50000000       0.00000000       0.50000000 </v>
  </varray>
  <varray name="weights" >
   <v>       0.00250000 </v>
   <v>       0.00250000 </v>
   <v>       0.00250000 </v>
   <v>       0.00250000 </v>
   <v>       0.00250000 </v>
   <v>       0.00250000 </v>
   <v>       0.00250000 </v>
   <v>       0.00250000 </v>
   <v>       0.00250000 </v>
   <v>       0.00250000 </v>
   <v>       0.00250000 </v>
   <v>       0.00250000 </v>
   <v>       0.00250000 </v>
   <v>       0.00250000 </v>
   <v>       0.00250000 </v>
   <v>       0.00250000 </v>
   <v>       0.00250000 </v>
   <v>       0.00250000 </v>
   <v>       0.00250000 </v>
   <v>       0.00250000 </v>
   <v>       0.00250000 </v>
   <v>       0.00250000 </v>
   <v>       0.00250000 </v>
   <v>       0.00250000 </v>
   <v>       0.00250000 </v>
   <v>       0.00250000 </v>
   <v>       0.00250000 </v>
   <v>       0.00250000 </v>
   <v>       0.00250000 </v>
   <v>       0.00250000 </v>
   <v>       0.00250000 </v>
   <v>       0.00250000 </v>
   <v>       0.00250000 </v>
   <v>       0.00250000 </v>
   <v>       0.00250000 </v>
   <v>       0.00250000 </v>
   <v>       0.00250000 </v>
   <v>       0.00250000 </v>
   <v>       0.00250000 </v>
   <v>       0.00250000 </v>
   <v>       0.00250000 </v>
   <v>       0.00250000 </v>
   <v>       0.00250000 </v>
   <v>       0.00250000 </v>
   <v>       0.00250000 </v>
   <v>       0.00250000 </v>
   <v>       0.00250000 </v>
   <v>       0.00250000 </v>
   <v>       0.00250000 </v>
   <v>       0.00250000 </v>
   <v>       0.00250000 </v>
   <v>       0.00250000 </v>
   <v>       0.00250000 </v>
   <v>       0.00250000 </v>
   <v>       0.00250000 </v>
   <v>       0.00250000 </v>
   <v>       0.00250000 </v>
   <v>       0.00250000 </v>
   <v>       0.00250000 </v>
   <v>       0.00250000 </v>
   <v>       0.00250000 </v>
   <v>       0.00250000 </v>
   <v>       0.00250000 </v>
   <v>       0.00250000 </v>
   <v>       0.00250000 </v>
   <v>       0.00250000 </v>
   <v>       0.00250000 </v>
   <v>       0.00250000 </v>
   <v>       0.00250000 </v>
   <v>       0.00250000 </v>
   <v>       0.00250000 </v>
   <v>       0.00250000 </v>
   <v>       0.00250000 </v>
   <v>       0.00250000 </v>
   <v>       0.00250000 </v>
   <v>       0.00250000 </v>
   <v>       0.00250000 </v>
   <v>       0.00250000 </v>
   <v>       0.00250000 </v>
   <v>       0.00250000 </v>
   <v>       0.00250000 </v>
   <v>       0.00250000 </v>
   <v>       0.00250000 </v>
   <v>       0.00250000 </v>
   <v>       0.00250000 </v>
   <v>       0.00250000 </v>
   <v>       0.00250000 </v>
   <v>       0.00250000 </v>
   <v>       0.00250000 </v>
   <v>       0.00250000 </v>
   <v>       0.00250000 </v>
   <v>       0.00250000 </v>
   <v>       0.00250000 </v>
   <v>       0.00250000 </v>
   <v>       0.00250000 </v>
   <v>       0.00250000 </v>
   <v>       0.00250000 </v>
   <v>       0.00250000 </v>
   <v>       0.00250000 </v>
   <v>       0.00250000 </v>
   <v>       0.00250000 </v>
   <v>       0.00250000 </v>
   <v>       0.00250000 </v>
   <v>       0.00250000 </v>
   <v>       0.00250000 </v>
   <v>       0.00250000 </v>
   <v>       0.00250000 </v>
   <v>       0.00250000 </v>
   <v>       0.00250000 </v>
   <v>       0.00250000 </v>
   <v>       0.00250000 </v>
   <v>       0.00250000 </v>
   <v>       0.00250000 </v>
   <v>       0.00250000 </v>
   <v>       0.00250000 </v>
   <v>       0.00250000 </v>
   <v>       0.00250000 </v>
   <v>       0.00250000 </v>
   <v>       0.00250000 </v>
   <v>       0.00250000 </v>
   <v>       0.00250000 </v>
   <v>       0.00250000 </v>
   <v>       0.00250000 </v>
   <v>       0.00250000 </v>
   <v>       0.00250000 </v>
   <v>       0.00250000 </v>
   <v>       0.00250000 </v>
   <v>       0.00250000 </v>
   <v>       0.00250000 </v>
   <v>       0.00250000 </v>
   <v>       0.00250000 </v>
   <v>       0.00250000 </v>
   <v>       0.00250000 </v>
   <v>       0.00250000 </v>
   <v>       0.00250000 </v>
   <v>       0.00250000 </v>
   <v>       0.00250000 </v>
   <v>       0.00250000 </v>
   <v>       0.00250000 </v>
   <v>       0.00250000 </v>
   <v>       0.00250000 </v>
   <v>       0.00250000 </v>
   <v>       0.00250000 </v>
   <v>       0.00250000 </v>
   <v>       0.00250000 </v>
   <v>       0.00250000 </v>
   <v>       0.00250000 </v>
   <v>       0.00250000 </v>
   <v>       0.00250000 </v>
   <v>       0.00250000 </v>
   <v>       0.00250000 </v>
   <v>       0.00250000 </v>
   <v>       0.00250000 </v>
   <v>       0.00250000 </v>
   <v>       0.00250000 </v>
   <v>       0.00250000 </v>
   <v>       0.00250000 </v>
   <v>       0.00250000 </v>
   <v>       0.00250000 </v>
   <v>       0.00250000 </v>
   <v>       0.00250000 </v>
   <v>       0.00250000 </v>
   <v>       0.00250000 </v>
   <v>       0.00250000 </v>
   <v>       0.00250000 </v>
   <v>       0.00250000 </v>
   <v>       0.00250000 </v>
   <v>       0.00250000 </v>
   <v>       0.00250000 </v>
   <v>       0.00250000 </v>
   <v>       0.00250000 </v>
   <v>       0.00250000 </v>
   <v>       0.00250000 </v>
   <v>       0.00250000 </v>
   <v>       0.00250000 </v>
   <v>       0.00250000 </v>
   <v>       0.00250000 </v>
   <v>       0.00250000 </v>
   <v>       0.00250000 </v>
   <v>       0.00250000 </v>
   <v>       0.00250000 </v>
   <v>       0.00250000 </v>
   <v>       0.00250000 </v>
   <v>       0.00250000 </v>
   <v>       0.00250000 </v>
   <v>       0.00250000 </v>
   <v>       0.00250000 </v>
   <v>       0.00250000 </v>
   <v>       0.00250000 </v>
   <v>       0.00250000 </v>
   <v>       0.00250000 </v>
   <v>       0.00250000 </v>
   <v>       0.00250000 </v>
   <v>       0.00250000 </v>
   <v>       0.00250000 </v>
   <v>       0.00250000 </v>
   <v>       0.00250000 </v>
   <v>       0.00250000 </v>
   <v>       0.00250000 </v>
   <v>       0.00250000 </v>
   <v>       0.00250000 </v>
   <v>       0.00250000 </v>
   <v>       0.00250000 </v>
   <v>       0.00250000 </v>
   <v>       0.00250000 </v>
   <v>       0.00250000 </v>
   <v>       0.00250000 </v>
   <v>       0.00250000 </v>
   <v>       0.00250000 </v>
   <v>       0.00250000 </v>
   <v>       0.00250000 </v>
   <v>       0.00250000 </v>
   <v>       0.00250000 </v>
   <v>       0.00250000 </v>
   <v>       0.00250000 </v>
   <v>       0.00250000 </v>
   <v>       0.00250000 </v>
   <v>       0.00250000 </v>
   <v>       0.00250000 </v>
   <v>       0.00250000 </v>
   <v>       0.00250000 </v>
   <v>       0.00250000 </v>
   <v>       0.00250000 </v>
   <v>       0.00250000 </v>
   <v>       0.00250000 </v>
   <v>       0.00250000 </v>
   <v>       0.00250000 </v>
   <v>       0.00250000 </v>
   <v>       0.00250000 </v>
   <v>       0.00250000 </v>
   <v>       0.00250000 </v>
   <v>       0.00250000 </v>
   <v>       0.00250000 </v>
   <v>       0.00250000 </v>
   <v>       0.00250000 </v>
   <v>       0.00250000 </v>
   <v>       0.00250000 </v>
   <v>       0.00250000 </v>
   <v>       0.00250000 </v>
   <v>       0.00250000 </v>
   <v>       0.00250000 </v>
   <v>       0.00250000 </v>
   <v>       0.00250000 </v>
   <v>       0.00250000 </v>
   <v>       0.00250000 </v>
   <v>       0.00250000 </v>
   <v>       0.00250000 </v>
   <v>       0.00250000 </v>
   <v>       0.00250000 </v>
   <v>       0.00250000 </v>
   <v>       0.00250000 </v>
   <v>       0.00250000 </v>
   <v>       0.00250000 </v>
   <v>       0.00250000 </v>
   <v>       0.00250000 </v>
   <v>       0.00250000 </v>
   <v>       0.00250000 </v>
   <v>       0.00250000 </v>
   <v>       0.00250000 </v>
   <v>       0.00250000 </v>
   <v>       0.00250000 </v>
   <v>       0.00250000 </v>
   <v>       0.00250000 </v>
   <v>       0.00250000 </v>
   <v>       0.00250000 </v>
   <v>       0.00250000 </v>
   <v>       0.00250000 </v>
   <v>       0.00250000 </v>
   <v>       0.00250000 </v>
   <v>       0.00250000 </v>
   <v>       0.00250000 </v>
   <v>       0.00250000 </v>
   <v>       0.00250000 </v>
   <v>       0.00250000 </v>
   <v>       0.00250000 </v>
   <v>       0.00250000 </v>
   <v>       0.00250000 </v>
   <v>       0.00250000 </v>
   <v>       0.00250000 </v>
   <v>       0.00250000 </v>
   <v>       0.00250000 </v>
   <v>       0.00250000 </v>
   <v>       0.00250000 </v>
   <v>       0.00250000 </v>
   <v>       0.00250000 </v>
   <v>       0.00250000 </v>
   <v>       0.00250000 </v>
   <v>       0.00250000 </v>
   <v>       0.00250000 </v>
   <v>       0.00250000 </v>
   <v>       0.00250000 </v>
   <v>       0.00250000 </v>
   <v>       0.00250000 </v>
   <v>       0.00250000 </v>
   <v>       0.00250000 </v>
   <v>       0.00250000 </v>
   <v>       0.00250000 </v>
   <v>       0.00250000 </v>
   <v>       0.00250000 </v>
   <v>       0.00250000 </v>
   <v>       0.00250000 </v>
   <v>       0.00250000 </v>
   <v>       0.00250000 </v>
   <v>       0.00250000 </v>
   <v>       0.00250000 </v>
   <v>       0.00250000 </v>
   <v>       0.00250000 </v>
   <v>       0.00250000 </v>
   <v>       0.00250000 </v>
   <v>       0.00250000 </v>
   <v>       0.00250000 </v>
   <v>       0.00250000 </v>
   <v>       0.00250000 </v>
   <v>       0.00250000 </v>
   <v>       0.00250000 </v>
   <v>       0.00250000 </v>
   <v>       0.00250000 </v>
   <v>       0.00250000 </v>
   <v>       0.00250000 </v>
   <v>       0.00250000 </v>
   <v>       0.00250000 </v>
   <v>       0.00250000 </v>
   <v>       0.00250000 </v>
   <v>       0.00250000 </v>
   <v>       0.00250000 </v>
   <v>       0.00250000 </v>
   <v>       0.00250000 </v>
   <v>       0.00250000 </v>
   <v>       0.00250000 </v>
   <v>       0.00250000 </v>
   <v>       0.00250000 </v>
   <v>       0.00250000 </v>
   <v>       0.00250000 </v>
   <v>       0.00250000 </v>
   <v>       0.00250000 </v>
   <v>       0.00250000 </v>
   <v>       0.00250000 </v>
   <v>       0.00250000 </v>
   <v>       0.00250000 </v>
   <v>       0.00250000 </v>
   <v>       0.00250000 </v>
   <v>       0.00250000 </v>
   <v>       0.00250000 </v>
   <v>       0.00250000 </v>
   <v>       0.00250000 </v>
   <v>       0.00250000 </v>
   <v>       0.00250000 </v>
   <v>       0.00250000 </v>
   <v>       0.00250000 </v>
   <v>       0.00250000 </v>
   <v>       0.00250000 </v>
   <v>       0.00250000 </v>
   <v>       0.00250000 </v>
   <v>       0.00250000 </v>
   <v>       0.00250000 </v>
   <v>       0.00250000 </v>
   <v>       0.00250000 </v>
   <v>       0.00250000 </v>
   <v>       0.00250000 </v>
   <v>       0.00250000 </v>
   <v>       0.00250000 </v>
   <v>       0.00250000 </v>
   <v>       0.00250000 </v>
   <v>       0.00250000 </v>
   <v>       0.00250000 </v>
   <v>       0.00250000 </v>
   <v>       0.00250000 </v>
   <v>       0.00250000 </v>
   <v>       0.00250000 </v>
   <v>       0.00250000 </v>
   <v>       0.00250000 </v>
   <v>       0.00250000 </v>
   <v>       0.00250000 </v>
   <v>       0.00250000 </v>
   <v>       0.00250000 </v>
   <v>       0.00250000 </v>
   <v>       0.00250000 </v>
   <v>       0.00250000 </v>
   <v>       0.00250000 </v>
   <v>       0.00250000 </v>
   <v>       0.00250000 </v>
   <v>       0.00250000 </v>
   <v>       0.00250000 </v>
   <v>       0.00250000 </v>
   <v>       0.00250000 </v>
   <v>       0.00250000 </v>
   <v>       0.00250000 </v>
   <v>       0.00250000 </v>
   <v>       0.00250000 </v>
   <v>       0.00250000 </v>
   <v>       0.00250000 </v>
   <v>       0.00250000 </v>
   <v>       0.00250000 </v>
   <v>       0.00250000 </v>
   <v>       0.00250000 </v>
   <v>       0.00250000 </v>
   <v>       0.00250000 </v>
   <v>       0.00250000 </v>
   <v>       0.00250000 </v>
   <v>       0.00250000 </v>
  </varray>
 </kpoints>
 <parameters>
  <separator name="general" >
   <i type="string" name="SYSTEM">diamond_primitive_PBE</i>
   <i type="logical" name="LCOMPAT"> F  </i>
  </separator>
  <separator name="electronic" >
   <i type="string" name="PREC">accura</i>
   <i name="ENMAX">    400.00000000</i>
   <i name="ENAUG">    644.87300000</i>
   <i name="EDIFF">      0.00010000</i>
   <i type="int" name="IALGO">    38</i>
   <i type="int" name="IWAVPR">    10</i>
   <i type="int" name="NBANDS">    12</i>
   <i name="NELECT">      8.00000000</i>
   <i type="int" name="TURBO">     0</i>
   <i type="int" name="IRESTART">     0</i>
   <i type="int" name="NREBOOT">     0</i>
   <i type="int" name="NMIN">     0</i>
   <i name="EREF">      0.00000000</i>
   <separator name="electronic smearing" >
    <i type="int" name="ISMEAR">     0</i>
    <i name="SIGMA">      0.20000000</i>
    <i name="KSPACING">      0.50000000</i>
    <i type="logical" name="KGAMMA"> T  </i>
   </separator>
   <separator name="electronic projectors" >
    <i type="logical" name="LREAL"> F  </i>
    <v name="ROPT">      0.00000000</v>
    <i type="int" name="LMAXPAW">  -100</i>
    <i type="int" name="LMAXMIX">     2</i>
    <i type="logical" name="NLSPLINE"> F  </i>
   </separator>
   <separator name="electronic startup" >
    <i type="int" name="ISTART">     1</i>
    <i type="int" name="ICHARG">    11</i>
    <i type="int" name="INIWAV">     1</i>
   </separator>
   <separator name="electronic spin" >
    <i type="int" name="ISPIN">     1</i>
    <i type="logical" name="LNONCOLLINEAR"> F  </i>
    <v name="MAGMOM">      1.00000000      1.00000000</v>
    <i name="NUPDOWN">     -1.00000000</i>
    <i type="logical" name="LSORBIT"> F  </i>
    <v name="SAXIS">      0.00000000      0.00000000      1.00000000</v>
    <i type="logical" name="LSPIRAL"> F  </i>
    <v name="QSPIRAL">      0.00000000      0.00000000      0.00000000</v>
    <i type="logical" name="LZEROZ"> F  </i>
   </separator>
   <separator name="electronic exchange-correlation" >
    <i type="logical" name="LASPH"> F  </i>
    <i type="logical" name="LMETAGGA"> F  </i>
   </separator>
   <separator name="electronic convergence" >
    <i type="int" name="NELM">    60</i>
    <i type="int" name="NELMDL">     0</i>
    <i type="int" name="NELMIN">     2</i>
    <i name="ENINI">    400.00000000</i>
    <separator name="electronic convergence detail" >
     <i type="logical" name="LDIAG"> T  </i>
     <i type="logical" name="LSUBROT"> F  </i>
     <i name="WEIMIN">      0.00000000</i>
     <i name="EBREAK">      0.00000208</i>
     <i name="DEPER">      0.30000000</i>
     <i type="int" name="NRMM">     4</i>
     <i name="TIME">      0.40000000</i>
    </separator>
   </separator>
   <separator name="electronic mixer" >
    <i name="AMIX">      0.40000000</i>
    <i name="BMIX">      1.00000000</i>
    <i name="AMIN">      0.10000000</i>
    <i name="AMIX_MAG">      1.60000000</i>
    <i name="BMIX_MAG">      1.00000000</i>
    <separator name="electronic mixer details" >
     <i type="int" name="IMIX">     4</i>
     <i type="logical" name="MIXFIRST"> F  </i>
     <i type="int" name="MAXMIX">   -45</i>
     <i name="WC">    100.00000000</i>
     <i type="int" name="INIMIX">     1</i>
     <i type="int" name="MIXPRE">     1</i>
     <i type="int" name="MREMOVE">     5</i>
    </separator>
   </separator>
   <separator name="electronic dipolcorrection" >
    <i type="logical" name="LDIPOL"> F  </i>
    <i type="logical" name="LMONO"> F  </i>
    <i type="int" name="IDIPOL">     0</i>
    <i name="EPSILON">      1.00000000</i>
    <v name="DIPOL">   -100.00000000   -100.00000000   -100.00000000</v>
    <i name="EFIELD">      0.00000000</i>
   </separator>
  </separator>
  <separator name="grids" >
   <i type="int" name="NGX">    16</i>
   <i type="int" name="NGY">    16</i>
   <i type="int" name="NGZ">    16</i>
   <i type="int" name="NGXF">    32</i>
   <i type="int" name="NGYF">    32</i>
   <i type="int" name="NGZF">    32</i>
   <i type="logical" name="ADDGRID"> F  </i>
  </separator>
  <separator name="ionic" >
   <i type="int" name="NSW">     0</i>
   <i type="int" name="IBRION">    -1</i>
   <i type="int" name="ISIF">     2</i>
   <i name="PSTRESS">      0.00000000</i>
   <i name="EDIFFG">      0.00100000</i>
   <i type="int" name="NFREE">     0</i>
   <i name="POTIM">      0.50000000</i>
   <i name="SMASS">     -3.00000000</i>
   <i name="SCALEE">      1.00000000</i>
  </separator>
  <separator name="ionic md" >
   <i name="TEBEG">      0.00010000</i>
   <i name="TEEND">      0.00010000</i>
   <i type="int" name="NBLOCK">     1</i>
   <i type="int" name="KBLOCK">     1</i>
   <i type="int" name="NPACO">   256</i>
   <i name="APACO">     16.00000000</i>
  </separator>
  <separator name="symmetry" >
   <i type="int" name="ISYM">     2</i>
   <i name="SYMPREC">      0.00001000</i>
  </separator>
  <separator name="dos" >
   <i type="logical" name="LORBIT"> F  </i>
   <v name="RWIGS">     -1.00000000</v>
   <i type="int" name="NEDOS">   301</i>
   <i name="EMIN">     10.00000000</i>
   <i name="EMAX">    -10.00000000</i>
   <i name="EFERMI">      0.00000000</i>
  </separator>
  <separator name="writing" >
   <i type="int" name="NWRITE">     2</i>
   <i type="logical" name="LWAVE"> T  </i>
   <i type="logical" name="LCHARG"> T  </i>
   <i type="logical" name="LPARD"> F  </i>
   <i type="logical" name="LVTOT"> F  </i>
   <i type="logical" name="LVHAR"> F  </i>
   <i type="logical" name="LELF"> F  </i>
   <i type="logical" name="LOPTICS"> F  </i>
   <v name="STM">      0.00000000      0.00000000      0.00000000      0.00000000      0.00000000      0.00000000      0.00000000</v>
  </separator>
  <separator name="performance" >
   <i type="int" name="NPAR">     4</i>
   <i type="int" name="NSIM">     4</i>
   <i type="int" name="NBLK">    -1</i>
   <i type="logical" name="LPLANE"> T  </i>
   <i type="logical" name="LSCALAPACK"> T  </i>
   <i type="logical" name="LSCAAWARE"> F  </i>
   <i type="logical" name="LSCALU"> F  </i>
   <i type="logical" name="LASYNC"> F  </i>
   <i type="logical" name="LORBITALREAL"> F  </i>
  </separator>
  <separator name="miscellaneous" >
   <i type="int" name="IDIOT">     3</i>
   <i type="logical" name="LMUSIC"> F  </i>
   <v name="POMASS">     12.01100000</v>
   <v name="DARWINR">      0.00000000</v>
   <v name="DARWINV">      1.00000000</v>
   <i type="logical" name="LCORR"> T  </i>
  </separator>
  <i type="logical" name="GGA_COMPAT"> T  </i>
  <i type="logical" name="LBERRY"> F  </i>
  <i type="int" name="ICORELEVEL">     0</i>
  <i type="logical" name="LDAU"> F  </i>
  <i type="int" name="I_CONSTRAINED_M">     0</i>
  <separator name="electronic exchange-correlation" >
   <i type="string" name="GGA">--</i>
   <i type="int" name="VOSKOWN">     0</i>
   <i type="logical" name="LHFCALC"> F  </i>
   <i type="string" name="PRECFOCK"></i>
   <i type="logical" name="LSYMGRAD"> F  </i>
   <i type="logical" name="LHFONE"> F  </i>
   <i type="logical" name="LRHFCALC"> F  </i>
   <i type="logical" name="LTHOMAS"> F  </i>
   <i type="logical" name="LMODELHF"> F  </i>
   <i name="ENCUT4O">     -1.00000000</i>
   <i type="int" name="EXXOEP">     0</i>
   <i type="int" name="FOURORBIT">     0</i>
   <i name="AEXX">      0.00000000</i>
   <i name="HFALPHA">      0.00000000</i>
   <i name="MCALPHA">      0.00000000</i>
   <i name="ALDAX">      1.00000000</i>
   <i name="AGGAX">      1.00000000</i>
   <i name="ALDAC">      1.00000000</i>
   <i name="AGGAC">      1.00000000</i>
   <i type="int" name="NKREDX">     1</i>
   <i type="int" name="NKREDY">     1</i>
   <i type="int" name="NKREDZ">     1</i>
   <i type="logical" name="SHIFTRED"> F  </i>
   <i type="logical" name="ODDONLY"> F  </i>
   <i type="logical" name="EVENONLY"> F  </i>
   <i type="int" name="LMAXFOCK">     0</i>
   <i type="int" name="NMAXFOCKAE">     0</i>
   <i type="logical" name="LFOCKAEDFT"> F  </i>
   <i name="HFSCREEN">      0.00000000</i>
   <i name="HFSCREENC">      0.00000000</i>
   <i type="int" name="NBANDSGWLOW">     0</i>
  </separator>
  <separator name="vdW DFT" >
   <i type="logical" name="LUSE_VDW"> F  </i>
   <i name="Zab_VDW">     -0.84910000</i>
   <i name="PARAM1">      0.12340000</i>
   <i name="PARAM2">      1.00000000</i>
   <i name="PARAM3">      0.00000000</i>
  </separator>
  <separator name="model GW" >
   <i type="int" name="MODEL_GW">     0</i>
   <i name="MODEL_EPS0">      3.38915425</i>
   <i name="MODEL_ALPHA">      1.00000000</i>
  </separator>
  <separator name="linear response parameters" >
   <i type="logical" name="LEPSILON"> F  </i>
   <i type="logical" name="LRPA"> F  </i>
   <i type="logical" name="LNABLA"> F  </i>
   <i type="logical" name="LVEL"> F  </i>
   <i type="int" name="KINTER">     0</i>
   <i name="CSHIFT">      0.10000000</i>
   <i name="OMEGAMAX">     -1.00000000</i>
   <i name="DEG_THRESHOLD">      0.00200000</i>
  </separator>
  <separator name="orbital magnetization" >
   <i type="logical" name="NUCIND"> F  </i>
   <v name="MAGPOS">      0.00000000      0.00000000      0.00000000</v>
   <i type="logical" name="LNICSALL"> T  </i>
   <i type="logical" name="ORBITALMAG"> F  </i>
   <i type="logical" name="LMAGBLOCH"> F  </i>
   <i type="logical" name="LCHIMAG"> F  </i>
   <i type="logical" name="LGAUGE"> T  </i>
   <i type="int" name="MAGATOM">     0</i>
   <v name="MAGDIPOL">      0.00000000      0.00000000      0.00000000</v>
   <v name="AVECCONST">      0.00000000      0.00000000      0.00000000</v>
  </separator>
  <separator name="response functions" >
   <i type="logical" name="LADDER"> F  </i>
   <i type="logical" name="LFXC"> F  </i>
   <i type="logical" name="LHARTREE"> T  </i>
   <i type="int" name="IBSE">     0</i>
   <v type="int" name="KPOINT">    -1     0     0     0</v>
   <i type="logical" name="LTCTE"> F  </i>
   <i type="logical" name="LTETE"> F  </i>
   <i type="logical" name="LTRIPLET"> F  </i>
   <i type="logical" name="LFXCEPS"> F  </i>
   <i type="logical" name="LFXHEG"> F  </i>
   <i type="int" name="NATURALO">     0</i>
   <i type="logical" name="L2ORDER"> F  </i>
   <i type="logical" name="LUSEW"> F  </i>
   <i name="ENCUTGW">     -2.00000000</i>
   <i name="ENCUTGWSOFT">     -2.00000000</i>
   <i name="ENCUTLF">     -1.00000000</i>
   <i type="int" name="LMAXMP2">    -1</i>
   <i name="SCISSOR">      0.00000000</i>
   <i type="int" name="NOMEGA">     0</i>
   <i type="int" name="NOMEGAR">     0</i>
   <i type="int" name="NBANDSGW">    -1</i>
   <i type="int" name="NBANDSO">    -1</i>
   <i type="int" name="NBANDSV">    -1</i>
   <i type="int" name="NELM">     1</i>
   <i type="int" name="NELMHF">     1</i>
   <i type="int" name="DIM">     3</i>
   <i type="int" name="ANTIRES">     0</i>
   <i name="OMEGAMAX">    -30.00000000</i>
   <i name="OMEGAMIN">    -30.00000000</i>
   <i name="OMEGATL">   -200.00000000</i>
   <i type="int" name="OMEGAGRID">     0</i>
   <i name="CSHIFT">     -0.10000000</i>
   <i type="logical" name="SELFENERGY"> F  </i>
   <i type="logical" name="LSPECTRAL"> F  </i>
   <i type="logical" name="LSPECTRALGW"> F  </i>
   <i type="logical" name="LSINGLES"> F  </i>
   <i type="logical" name="LFERMIGW"> F  </i>
   <i type="logical" name="ODDONLYGW"> F  </i>
   <i type="logical" name="EVENONLYGW"> F  </i>
   <i type="int" name="NKREDLFX">     1</i>
   <i type="int" name="NKREDLFY">     1</i>
   <i type="int" name="NKREDLFZ">     1</i>
   <i type="int" name="MAXMEM">  1800</i>
   <i type="int" name="TELESCOPE">     0</i>
   <i type="int" name="TAUPAR">     1</i>
   <i type="int" name="OMEGAPAR">    -1</i>
   <i name="LAMBDA">      1.00000000</i>
  </separator>
  <separator name="External order field" >
   <i name="OFIELD_KAPPA">      0.00000000</i>
   <v name="OFIELD_K">      0.00000000      0.00000000      0.00000000</v>
   <i name="OFIELD_Q6_NEAR">      0.00000000</i>
   <i name="OFIELD_Q6_FAR">      0.00000000</i>
   <i name="OFIELD_A">      0.00000000</i>
  </separator>
 </parameters>
 <atominfo>
  <atoms>       2 </atoms>
  <types>       1 </types>
  <array name="atoms" >
   <dimension dim="1">ion</dimension>
   <field type="string">element</field>
   <field type="int">atomtype</field>
   <set>
    <rc><c>C </c><c>   1</c></rc>
    <rc><c>C </c><c>   1</c></rc>
   </set>
  </array>
  <array name="atomtypes" >
   <dimension dim="1">type</dimension>
   <field type="int">atomspertype</field>
   <field type="string">element</field>
   <field>mass</field>
   <field>valence</field>
   <field type="string">pseudopotential</field>
   <set>
    <rc><c>   2</c><c>C </c><c>     12.01100000</c><c>      4.00000000</c><c>  PAW_PBE C 08Apr2002                   </c></rc>
   </set>
  </array>
 </atominfo>
 <structure name="initialpos" >
  <crystal>
   <varray name="basis" >
    <v>       0.00000000       1.78092937       1.78092937 </v>
    <v>       1.78092937       0.00000000       1.78092937 </v>
    <v>       1.78092937       1.78092937       0.00000000 </v>
   </varray>
   <i name="volume">     11.29718085 </i>
   <varray name="rec_basis" >
    <v>      -0.28075229       0.28075229       0.28075229 </v>
    <v>       0.28075229      -0.28075229       0.28075229 </v>
    <v>       0.28075229       0.28075229      -0.28075229 </v>
   </varray>
  </crystal>
  <varray name="positions" >
   <v>       0.00000000       0.00000000       0.00000000 </v>
   <v>       0.25000000       0.25000000       0.25000000 </v>
  </varray>
 </structure>
 <calculation>
  <scstep>
   <time name="dav">    1.96    1.96</time>
   <time name="total">    1.97    1.99</time>
   <energy>
    <i name="alphaZ">     29.08573993 </i>
    <i name="ewald">   -348.44165189 </i>
    <i name="hartreedc">    -26.31348749 </i>
    <i name="XCdc">     28.23699869 </i>
    <i name="pawpsdc">    793.33945271 </i>
    <i name="pawaedc">   -794.66116227 </i>
    <i name="eentropy">     -0.00000000 </i>
    <i name="bandstr">     11.64782878 </i>
    <i name="atom">    294.25444774 </i>
    <i name="e_fr_energy">    -12.85183380 </i>
    <i name="e_wo_entrp">    -12.85183380 </i>
    <i name="e_0_energy">    -12.85183380 </i>
   </energy>
  </scstep>
  <scstep>
   <time name="dav">    1.95    1.95</time>
   <time name="total">    1.95    1.95</time>
   <energy>
    <i name="e_fr_energy">    -18.77913738 </i>
    <i name="e_wo_entrp">    -18.77913738 </i>
    <i name="e_0_energy">    -18.77913738 </i>
   </energy>
  </scstep>
  <scstep>
   <time name="dav">    1.84    1.84</time>
   <time name="total">    1.85    1.85</time>
   <energy>
    <i name="e_fr_energy">    -18.81668542 </i>
    <i name="e_wo_entrp">    -18.81668542 </i>
    <i name="e_0_energy">    -18.81668542 </i>
   </energy>
  </scstep>
  <scstep>
   <time name="dav">    1.86    1.86</time>
   <time name="total">    1.86    1.86</time>
   <energy>
    <i name="alphaZ">     29.08573993 </i>
    <i name="ewald">   -348.44165189 </i>
    <i name="hartreedc">    -26.31348749 </i>
    <i name="XCdc">     28.23699869 </i>
    <i name="pawpsdc">    793.33945271 </i>
    <i name="pawaedc">   -794.66116227 </i>
    <i name="eentropy">     -0.00000000 </i>
    <i name="bandstr">      5.68295632 </i>
    <i name="atom">    294.25444774 </i>
    <i name="e_fr_energy">    -18.81670626 </i>
    <i name="e_wo_entrp">    -18.81670626 </i>
    <i name="e_0_energy">    -18.81670626 </i>
   </energy>
  </scstep>
  <structure>
   <crystal>
    <varray name="basis" >
     <v>       0.00000000       1.78092937       1.78092937 </v>
     <v>       1.78092937       0.00000000       1.78092937 </v>
     <v>       1.78092937       1.78092937       0.00000000 </v>
    </varray>
    <i name="volume">     11.29718085 </i>
    <varray name="rec_basis" >
     <v>      -0.28075229       0.28075229       0.28075229 </v>
     <v>       0.28075229      -0.28075229       0.28075229 </v>
     <v>       0.28075229       0.28075229      -0.28075229 </v>
    </varray>
   </crystal>
   <varray name="positions" >
    <v>       0.00000000       0.00000000       0.00000000 </v>
    <v>       0.25000000       0.25000000       0.25000000 </v>
   </varray>
  </structure>
  <varray name="forces" >
   <v>       0.00000000       0.00000000      -0.00000000 </v>
   <v>      -0.00000000      -0.00000000       0.00000000 </v>
  </varray>
  <varray name="stress" >
   <v>     -85.15116167       0.00000000      -0.00000000 </v>
   <v>      -0.00000000     -85.15116167       0.00000000 </v>
   <v>      -0.00000000       0.00000000     -85.15116167 </v>
  </varray>
  <energy>
   <i name="e_fr_energy">    -18.81670626 </i>
   <i name="e_wo_entrp">    -18.81670626 </i>
   <i name="e_0_energy">     -0.00000000 </i>
  </energy>
  <time name="totalsc">    8.21    8.59</time>
  <eigenvalues>
   <array>
    <dimension dim="1">band</dimension>
    <dimension dim="2">kpoint</dimension>
    <dimension dim="3">spin</dimension>
    <field>eigene</field>
    <field>occ</field>
    <set>
     <set comment="spin 1">
      <set comment="kpoint 1">
       <r>  -11.7467    1.0000 </r>
       <r>    9.8097    1.0000 </r>
       <r>    9.8097    1.0000 </r>
       <r>    9.8097    1.0000 </r>
       <r>   15.4095    0.0000 </r>
       <r>   15.4095    0.0000 </r>
       <r>   15.4095    0.0000 </r>
       <r>   23.2074    0.0000 </r>
       <r>   29.1383    0.0000 </r>
       <r>   36.3771    0.0000 </r>
       <r>   36.3772    0.0000 </r>
       <r>   37.3998    0.0000 </r>
      </set>
      <set comment="kpoint 2">
       <r>  -11.7406    1.0000 </r>
       <r>    9.7832    1.0000 </r>
       <r>    9.7832    1.0000 </r>
       <r>    9.7945    1.0000 </r>
       <r>   15.4045    0.0000 </r>
       <r>   15.4414    0.0000 </r>
       <r>   15.4414    0.0000 </r>
       <r>   23.2129    0.0000 </r>
       <r>   29.1496    0.0000 </r>
       <r>   35.9828    0.0000 </r>
       <r>   36.3849    0.0000 </r>
       <r>   37.4141    0.0000 </r>
      </set>
      <set comment="kpoint 3">
       <r>  -11.7224    1.0000 </r>
       <r>    9.7055    1.0000 </r>
       <r>    9.7055    1.0000 </r>
       <r>    9.7492    1.0000 </r>
       <r>   15.3897    0.0000 </r>
       <r>   15.5352    0.0000 </r>
       <r>   15.5352    0.0000 </r>
       <r>   23.2285    0.0000 </r>
       <r>   29.1830    0.0000 </r>
       <r>   35.3069    0.0000 </r>
       <r>   36.4080    0.0000 </r>
       <r>   37.4570    0.0000 </r>
      </set>
      <set comment="kpoint 4">
       <r>  -11.6919    1.0000 </r>
       <r>    9.5818    1.0000 </r>
       <r>    9.5818    1.0000 </r>
       <r>    9.6743    1.0000 </r>
       <r>   15.3653    0.0000 </r>
       <r>   15.6859    0.0000 </r>
       <r>   15.6859    0.0000 </r>
       <r>   23.2524    0.0000 </r>
       <r>   29.2384    0.0000 </r>
       <r>   34.5930    0.0000 </r>
       <r>   36.4466    0.0000 </r>
       <r>   37.5284    0.0000 </r>
      </set>
      <set comment="kpoint 5">
       <r>  -11.6493    1.0000 </r>
       <r>    9.4190    1.0000 </r>
       <r>    9.4190    1.0000 </r>
       <r>    9.5707    1.0000 </r>
       <r>   15.3318    0.0000 </r>
       <r>   15.8863    0.0000 </r>
       <r>   15.8863    0.0000 </r>
       <r>   23.2811    0.0000 </r>
       <r>   29.3150    0.0000 </r>
       <r>   33.8835    0.0000 </r>
       <r>   36.5006    0.0000 </r>
       <r>   37.6284    0.0000 </r>
      </set>
      <set comment="kpoint 6">
       <r>  -11.5945    1.0000 </r>
       <r>    9.2240    1.0000 </r>
       <r>    9.2240    1.0000 </r>
       <r>    9.4318    1.0000 </r>
       <r>   15.2808    0.0000 </r>
       <r>   16.1259    0.0000 </r>
       <r>   16.1259    0.0000 </r>
       <r>   23.3049    0.0000 </r>
       <r>   29.4073    0.0000 </r>
       <r>   33.1924    0.0000 </r>
       <r>   36.5700    0.0000 </r>
       <r>   37.7560    0.0000 </r>
      </set>
      <set comment="kpoint 7">
       <r>  -11.5276    1.0000 </r>
       <r>    9.0057    1.0000 </r>
       <r>    9.0057    1.0000 </r>
       <r>    9.2739    1.0000 </r>
       <r>   15.2307    0.0000 </r>
       <r>   16.4026    0.0000 </r>
       <r>   16.4026    0.0000 </r>
       <r>   23.3256    0.0000 </r>
       <r>   29.5221    0.0000 </r>
       <r>   32.5382    0.0000 </r>
       <r>   36.6548    0.0000 </r>
       <r>   37.9127    0.0000 </r>
      </set>
      <set comment="kpoint 8">
       <r>  -11.4486    1.0000 </r>
       <r>    8.7696    1.0000 </r>
       <r>    8.7696    1.0000 </r>
       <r>    9.0910    1.0000 </r>
       <r>   15.1735    0.0000 </r>
       <r>   16.7074    0.0000 </r>
       <r>   16.7074    0.0000 </r>
       <r>   23.3316    0.0000 </r>
       <r>   29.6546    0.0000 </r>
       <r>   31.9279    0.0000 </r>
       <r>   36.7551    0.0000 </r>
       <r>   38.0975    0.0000 </r>
      </set>
      <set comment="kpoint 9">
       <r>  -11.3575    1.0000 </r>
       <r>    8.5211    1.0000 </r>
       <r>    8.5211    1.0000 </r>
       <r>    8.8816    1.0000 </r>
       <r>   15.1101    0.0000 </r>
       <r>   17.0350    0.0000 </r>
       <r>   17.0350    0.0000 </r>
       <r>   23.3113    0.0000 </r>
       <r>   29.8034    0.0000 </r>
       <r>   31.3708    0.0000 </r>
       <r>   36.8708    0.0000 </r>
       <r>   38.3101    0.0000 </r>
      </set>
      <set comment="kpoint 10">
       <r>  -11.2544    1.0000 </r>
       <r>    8.2616    1.0000 </r>
       <r>    8.2616    1.0000 </r>
       <r>    8.6523    1.0000 </r>
       <r>   15.0472    0.0000 </r>
       <r>   17.3768    0.0000 </r>
       <r>   17.3768    0.0000 </r>
       <r>   23.2560    0.0000 </r>
       <r>   29.9651    0.0000 </r>
       <r>   30.8792    0.0000 </r>
       <r>   37.0004    0.0000 </r>
       <r>   38.5495    0.0000 </r>
      </set>
      <set comment="kpoint 11">
       <r>  -11.1392    1.0000 </r>
       <r>    8.0003    1.0000 </r>
       <r>    8.0003    1.0000 </r>
       <r>    8.4038    1.0000 </r>
       <r>   14.9738    0.0000 </r>
       <r>   17.7361    0.0000 </r>
       <r>   17.7361    0.0000 </r>
       <r>   23.1605    0.0000 </r>
       <r>   30.1416    0.0000 </r>
       <r>   30.4619    0.0000 </r>
       <r>   37.1470    0.0000 </r>
       <r>   38.8171    0.0000 </r>
      </set>
      <set comment="kpoint 12">
       <r>  -11.0120    1.0000 </r>
       <r>    7.7372    1.0000 </r>
       <r>    7.7372    1.0000 </r>
       <r>    8.1364    1.0000 </r>
       <r>   14.8972    0.0000 </r>
       <r>   18.1070    0.0000 </r>
       <r>   18.1070    0.0000 </r>
       <r>   23.0139    0.0000 </r>
       <r>   30.1257    0.0000 </r>
       <r>   30.3294    0.0000 </r>
       <r>   37.3089    0.0000 </r>
       <r>   39.1115    0.0000 </r>
      </set>
      <set comment="kpoint 13">
       <r>  -10.8730    1.0000 </r>
       <r>    7.4699    1.0000 </r>
       <r>    7.4699    1.0000 </r>
       <r>    7.8457    1.0000 </r>
       <r>   14.8180    0.0000 </r>
       <r>   18.4846    0.0000 </r>
       <r>   18.4846    0.0000 </r>
       <r>   22.8023    0.0000 </r>
       <r>   29.8694    0.0000 </r>
       <r>   30.5260    0.0000 </r>
       <r>   37.4859    0.0000 </r>
       <r>   39.4299    0.0000 </r>
      </set>
      <set comment="kpoint 14">
       <r>  -10.7220    1.0000 </r>
       <r>    7.2094    1.0000 </r>
       <r>    7.2094    1.0000 </r>
       <r>    7.5446    1.0000 </r>
       <r>   14.7379    0.0000 </r>
       <r>   18.8713    0.0000 </r>
       <r>   18.8713    0.0000 </r>
       <r>   22.5455    0.0000 </r>
       <r>   29.6987    0.0000 </r>
       <r>   30.7303    0.0000 </r>
       <r>   37.6787    0.0000 </r>
       <r>   39.7757    0.0000 </r>
      </set>
      <set comment="kpoint 15">
       <r>  -10.5592    1.0000 </r>
       <r>    6.9526    1.0000 </r>
       <r>    6.9526    1.0000 </r>
       <r>    7.2283    1.0000 </r>
       <r>   14.6574    0.0000 </r>
       <r>   19.2633    0.0000 </r>
       <r>   19.2633    0.0000 </r>
       <r>   22.2390    0.0000 </r>
       <r>   29.6045    0.0000 </r>
       <r>   30.9400    0.0000 </r>
       <r>   37.8869    0.0000 </r>
       <r>   40.1458    0.0000 </r>
      </set>
      <set comment="kpoint 16">
       <r>  -10.3847    1.0000 </r>
       <r>    6.7007    1.0000 </r>
       <r>    6.7007    1.0000 </r>
       <r>    6.8980    1.0000 </r>
       <r>   14.5774    0.0000 </r>
       <r>   19.6592    0.0000 </r>
       <r>   19.6592    0.0000 </r>
       <r>   21.8911    0.0000 </r>
       <r>   29.5776    0.0000 </r>
       <r>   31.1530    0.0000 </r>
       <r>   38.1106    0.0000 </r>
       <r>   40.5389    0.0000 </r>
      </set>
      <set comment="kpoint 17">
       <r>  -10.1984    1.0000 </r>
       <r>    6.4547    1.0000 </r>
       <r>    6.4547    1.0000 </r>
       <r>    6.5547    1.0000 </r>
       <r>   14.4989    0.0000 </r>
       <r>   20.0577    0.0000 </r>
       <r>   20.0577    0.0000 </r>
       <r>   21.5116    0.0000 </r>
       <r>   29.6071    0.0000 </r>
       <r>   31.3671    0.0000 </r>
       <r>   38.3497    0.0000 </r>
       <r>   40.9532    0.0000 </r>
      </set>
      <set comment="kpoint 18">
       <r>  -10.0005    1.0000 </r>
       <r>    6.1993    1.0000 </r>
       <r>    6.2154    1.0000 </r>
       <r>    6.2154    1.0000 </r>
       <r>   14.4227    0.0000 </r>
       <r>   20.4576    0.0000 </r>
       <r>   20.4576    0.0000 </r>
       <r>   21.1103    0.0000 </r>
       <r>   29.6821    0.0000 </r>
       <r>   31.5804    0.0000 </r>
       <r>   38.6040    0.0000 </r>
       <r>   41.3862    0.0000 </r>
      </set>
      <set comment="kpoint 19">
       <r>   -9.7912    1.0000 </r>
       <r>    5.8326    1.0000 </r>
       <r>    5.9836    1.0000 </r>
       <r>    5.9836    1.0000 </r>
       <r>   14.3495    0.0000 </r>
       <r>   20.6960    0.0000 </r>
       <r>   20.8578    0.0000 </r>
       <r>   20.8578    0.0000 </r>
       <r>   29.7927    0.0000 </r>
       <r>   31.7908    0.0000 </r>
       <r>   38.8739    0.0000 </r>
       <r>   41.8346    0.0000 </r>
      </set>
      <set comment="kpoint 20">
       <r>   -9.5703    1.0000 </r>
       <r>    5.4556    1.0000 </r>
       <r>    5.7600    1.0000 </r>
       <r>    5.7600    1.0000 </r>
       <r>   14.2800    0.0000 </r>
       <r>   20.2761    0.0000 </r>
       <r>   21.2572    0.0000 </r>
       <r>   21.2572    0.0000 </r>
       <r>   29.9304    0.0000 </r>
       <r>   31.9964    0.0000 </r>
       <r>   39.1598    0.0000 </r>
       <r>   42.2936    0.0000 </r>
      </set>
      <set comment="kpoint 21">
       <r>   -9.3382    1.0000 </r>
       <r>    5.0690    1.0000 </r>
       <r>    5.5449    1.0000 </r>
       <r>    5.5449    1.0000 </r>
       <r>   14.2151    0.0000 </r>
       <r>   19.8565    0.0000 </r>
       <r>   21.6549    0.0000 </r>
       <r>   21.6549    0.0000 </r>
       <r>   30.0882    0.0000 </r>
       <r>   32.1951    0.0000 </r>
       <r>   39.4606    0.0000 </r>
       <r>   42.7561    0.0000 </r>
      </set>
      <set comment="kpoint 22">
       <r>   -9.0948    1.0000 </r>
       <r>    4.6736    1.0000 </r>
       <r>    5.3389    1.0000 </r>
       <r>    5.3389    1.0000 </r>
       <r>   14.1553    0.0000 </r>
       <r>   19.4421    0.0000 </r>
       <r>   22.0498    0.0000 </r>
       <r>   22.0498    0.0000 </r>
       <r>   30.2605    0.0000 </r>
       <r>   32.3851    0.0000 </r>
       <r>   39.7759    0.0000 </r>
       <r>   43.2117    0.0000 </r>
      </set>
      <set comment="kpoint 23">
       <r>   -8.8404    1.0000 </r>
       <r>    4.2703    1.0000 </r>
       <r>    5.1422    1.0000 </r>
       <r>    5.1422    1.0000 </r>
       <r>   14.0980    0.0000 </r>
       <r>   19.0365    0.0000 </r>
       <r>   22.4395    0.0000 </r>
       <r>   22.4395    0.0000 </r>
       <r>   30.4427    0.0000 </r>
       <r>   32.5219    0.0000 </r>
       <r>   40.1074    0.0000 </r>
       <r>   43.6431    0.0000 </r>
      </set>
      <set comment="kpoint 24">
       <r>   -8.5749    1.0000 </r>
       <r>    3.8599    1.0000 </r>
       <r>    4.9554    1.0000 </r>
       <r>    4.9554    1.0000 </r>
       <r>   14.0504    0.0000 </r>
       <r>   18.6424    0.0000 </r>
       <r>   22.8252    0.0000 </r>
       <r>   22.8252    0.0000 </r>
       <r>   30.6312    0.0000 </r>
       <r>   32.6847    0.0000 </r>
       <r>   40.4543    0.0000 </r>
       <r>   44.0292    0.0000 </r>
      </set>
      <set comment="kpoint 25">
       <r>   -8.2987    1.0000 </r>
       <r>    3.4432    1.0000 </r>
       <r>    4.7788    1.0000 </r>
       <r>    4.7788    1.0000 </r>
       <r>   14.0097    0.0000 </r>
       <r>   18.2619    0.0000 </r>
       <r>   23.2046    0.0000 </r>
       <r>   23.2046    0.0000 </r>
       <r>   30.8231    0.0000 </r>
       <r>   32.8338    0.0000 </r>
       <r>   40.8165    0.0000 </r>
       <r>   44.3373    0.0000 </r>
      </set>
      <set comment="kpoint 26">
       <r>   -8.0117    1.0000 </r>
       <r>    3.0225    1.0000 </r>
       <r>    4.6126    1.0000 </r>
       <r>    4.6126    1.0000 </r>
       <r>   13.9802    0.0000 </r>
       <r>   17.8968    0.0000 </r>
       <r>   23.5781    0.0000 </r>
       <r>   23.5781    0.0000 </r>
       <r>   31.0299    0.0000 </r>
       <r>   32.9900    0.0000 </r>
       <r>   41.1942    0.0000 </r>
       <r>   44.5341    0.0000 </r>
      </set>
      <set comment="kpoint 27">
       <r>   -7.7143    1.0000 </r>
       <r>    2.5953    1.0000 </r>
       <r>    4.4569    1.0000 </r>
       <r>    4.4569    1.0000 </r>
       <r>   13.9545    0.0000 </r>
       <r>   17.5476    0.0000 </r>
       <r>   23.9403    0.0000 </r>
       <r>   23.9403    0.0000 </r>
       <r>   31.2221    0.0000 </r>
       <r>   33.1084    0.0000 </r>
       <r>   41.5874    0.0000 </r>
       <r>   44.5962    0.0000 </r>
      </set>
      <set comment="kpoint 28">
       <r>   -7.4067    1.0000 </r>
       <r>    2.1643    1.0000 </r>
       <r>    4.3101    1.0000 </r>
       <r>    4.3101    1.0000 </r>
       <r>   13.9368    0.0000 </r>
       <r>   17.2153    0.0000 </r>
       <r>   24.2837    0.0000 </r>
       <r>   24.2837    0.0000 </r>
       <r>   31.4065    0.0000 </r>
       <r>   33.2100    0.0000 </r>
       <r>   41.9967    0.0000 </r>
       <r>   44.5296    0.0000 </r>
      </set>
      <set comment="kpoint 29">
       <r>   -7.0890    1.0000 </r>
       <r>    1.7304    1.0000 </r>
       <r>    4.1763    1.0000 </r>
       <r>    4.1763    1.0000 </r>
       <r>   13.9285    0.0000 </r>
       <r>   16.9004    0.0000 </r>
       <r>   24.6213    0.0000 </r>
       <r>   24.6213    0.0000 </r>
       <r>   31.5928    0.0000 </r>
       <r>   33.2947    0.0000 </r>
       <r>   42.4204    0.0000 </r>
       <r>   44.3634    0.0000 </r>
      </set>
      <set comment="kpoint 30">
       <r>   -6.7614    1.0000 </r>
       <r>    1.2943    1.0000 </r>
       <r>    4.0536    1.0000 </r>
       <r>    4.0536    1.0000 </r>
       <r>   13.9297    0.0000 </r>
       <r>   16.6031    0.0000 </r>
       <r>   24.9436    0.0000 </r>
       <r>   24.9436    0.0000 </r>
       <r>   31.7746    0.0000 </r>
       <r>   33.3620    0.0000 </r>
       <r>   42.8589    0.0000 </r>
       <r>   44.1327    0.0000 </r>
      </set>
      <set comment="kpoint 31">
       <r>   -6.4242    1.0000 </r>
       <r>    0.8570    1.0000 </r>
       <r>    3.9423    1.0000 </r>
       <r>    3.9423    1.0000 </r>
       <r>   13.9408    0.0000 </r>
       <r>   16.3234    0.0000 </r>
       <r>   25.2483    0.0000 </r>
       <r>   25.2484    0.0000 </r>
       <r>   31.9511    0.0000 </r>
       <r>   33.4119    0.0000 </r>
       <r>   43.3141    0.0000 </r>
       <r>   43.8679    0.0000 </r>
      </set>
      <set comment="kpoint 32">
       <r>   -6.0776    1.0000 </r>
       <r>    0.4193    1.0000 </r>
       <r>    3.8423    1.0000 </r>
       <r>    3.8423    1.0000 </r>
       <r>   13.9621    0.0000 </r>
       <r>   16.0613    0.0000 </r>
       <r>   25.5328    0.0000 </r>
       <r>   25.5328    0.0000 </r>
       <r>   32.1216    0.0000 </r>
       <r>   33.4445    0.0000 </r>
       <r>   43.5915    0.0000 </r>
       <r>   43.5989    0.0000 </r>
      </set>
      <set comment="kpoint 33">
       <r>   -5.7220    1.0000 </r>
       <r>   -0.0181    1.0000 </r>
       <r>    3.7539    1.0000 </r>
       <r>    3.7539    1.0000 </r>
       <r>   13.9942    0.0000 </r>
       <r>   15.8165    0.0000 </r>
       <r>   25.7941    0.0000 </r>
       <r>   25.7941    0.0000 </r>
       <r>   32.2856    0.0000 </r>
       <r>   33.4602    0.0000 </r>
       <r>   43.3197    0.0000 </r>
       <r>   43.3215    0.0000 </r>
      </set>
      <set comment="kpoint 34">
       <r>   -5.3576    1.0000 </r>
       <r>   -0.4543    1.0000 </r>
       <r>    3.6771    1.0000 </r>
       <r>    3.6771    1.0000 </r>
       <r>   14.0375    0.0000 </r>
       <r>   15.5888    0.0000 </r>
       <r>   26.0292    0.0000 </r>
       <r>   26.0292    0.0000 </r>
       <r>   32.4423    0.0000 </r>
       <r>   33.4593    0.0000 </r>
       <r>   43.0645    0.0000 </r>
       <r>   43.0713    0.0000 </r>
      </set>
      <set comment="kpoint 35">
       <r>   -4.9848    1.0000 </r>
       <r>   -0.8886    1.0000 </r>
       <r>    3.6121    1.0000 </r>
       <r>    3.6121    1.0000 </r>
       <r>   14.0923    0.0000 </r>
       <r>   15.3779    0.0000 </r>
       <r>   26.2351    0.0000 </r>
       <r>   26.2351    0.0000 </r>
       <r>   32.5913    0.0000 </r>
       <r>   33.4425    0.0000 </r>
       <r>   42.8347    0.0000 </r>
       <r>   42.8477    0.0000 </r>
      </set>
      <set comment="kpoint 36">
       <r>   -4.6040    1.0000 </r>
       <r>   -1.3203    1.0000 </r>
       <r>    3.5588    1.0000 </r>
       <r>    3.5588    1.0000 </r>
       <r>   14.1592    0.0000 </r>
       <r>   15.1834    0.0000 </r>
       <r>   26.4088    0.0000 </r>
       <r>   26.4088    0.0000 </r>
       <r>   32.7320    0.0000 </r>
       <r>   33.4105    0.0000 </r>
       <r>   42.6375    0.0000 </r>
       <r>   42.6486    0.0000 </r>
      </set>
      <set comment="kpoint 37">
       <r>   -4.2155    1.0000 </r>
       <r>   -1.7487    1.0000 </r>
       <r>    3.5172    1.0000 </r>
       <r>    3.5172    1.0000 </r>
       <r>   14.2385    0.0000 </r>
       <r>   15.0049    0.0000 </r>
       <r>   26.5474    0.0000 </r>
       <r>   26.5474    0.0000 </r>
       <r>   32.8639    0.0000 </r>
       <r>   33.3639    0.0000 </r>
       <r>   42.4784    0.0000 </r>
       <r>   42.4790    0.0000 </r>
      </set>
      <set comment="kpoint 38">
       <r>   -3.8198    1.0000 </r>
       <r>   -2.1741    1.0000 </r>
       <r>    3.4874    1.0000 </r>
       <r>    3.4874    1.0000 </r>
       <r>   14.3308    0.0000 </r>
       <r>   14.8374    0.0000 </r>
       <r>   26.6450    0.0000 </r>
       <r>   26.6450    0.0000 </r>
       <r>   32.9420    0.0000 </r>
       <r>   33.3032    0.0000 </r>
       <r>   42.3617    0.0000 </r>
       <r>   42.3675    0.0000 </r>
      </set>
      <set comment="kpoint 39">
       <r>   -3.4171    1.0000 </r>
       <r>   -2.5937    1.0000 </r>
       <r>    3.4709    1.0000 </r>
       <r>    3.4709    1.0000 </r>
       <r>   14.4370    0.0000 </r>
       <r>   14.6898    0.0000 </r>
       <r>   26.7063    0.0000 </r>
       <r>   26.7063    0.0000 </r>
       <r>   33.0591    0.0000 </r>
       <r>   33.2435    0.0000 </r>
       <r>   42.2960    0.0000 </r>
       <r>   42.2961    0.0000 </r>
      </set>
      <set comment="kpoint 40">
       <r>   -3.0083    1.0000 </r>
       <r>   -3.0083    1.0000 </r>
       <r>    3.4649    1.0000 </r>
       <r>    3.4649    1.0000 </r>
       <r>   14.5563    0.0000 </r>
       <r>   14.5563    0.0000 </r>
       <r>   26.7268    0.0000 </r>
       <r>   26.7268    0.0000 </r>
       <r>   33.1571    0.0000 </r>
       <r>   33.1571    0.0000 </r>
       <r>   42.2720    0.0000 </r>
       <r>   42.2721    0.0000 </r>
      </set>
      <set comment="kpoint 41">
       <r>   -3.0083    1.0000 </r>
       <r>   -3.0083    1.0000 </r>
       <r>    3.4649    1.0000 </r>
       <r>    3.4649    1.0000 </r>
       <r>   14.5563    0.0000 </r>
       <r>   14.5563    0.0000 </r>
       <r>   26.7268    0.0000 </r>
       <r>   26.7268    0.0000 </r>
       <r>   33.1571    0.0000 </r>
       <r>   33.1571    0.0000 </r>
       <r>   42.2720    0.0000 </r>
       <r>   42.2720    0.0000 </r>
      </set>
      <set comment="kpoint 42">
       <r>   -3.0073    1.0000 </r>
       <r>   -3.0073    1.0000 </r>
       <r>    3.4615    1.0000 </r>
       <r>    3.4615    1.0000 </r>
       <r>   14.5626    0.0000 </r>
       <r>   14.5626    0.0000 </r>
       <r>   26.7239    0.0000 </r>
       <r>   26.7239    0.0000 </r>
       <r>   33.1531    0.0000 </r>
       <r>   33.1531    0.0000 </r>
       <r>   42.2644    0.0000 </r>
       <r>   42.2703    0.0000 </r>
      </set>
      <set comment="kpoint 43">
       <r>   -3.0044    1.0000 </r>
       <r>   -3.0044    1.0000 </r>
       <r>    3.4511    1.0000 </r>
       <r>    3.4511    1.0000 </r>
       <r>   14.5817    0.0000 </r>
       <r>   14.5817    0.0000 </r>
       <r>   26.7150    0.0000 </r>
       <r>   26.7150    0.0000 </r>
       <r>   33.1412    0.0000 </r>
       <r>   33.1412    0.0000 </r>
       <r>   42.2421    0.0000 </r>
       <r>   42.2436    0.0000 </r>
      </set>
      <set comment="kpoint 44">
       <r>   -2.9995    1.0000 </r>
       <r>   -2.9995    1.0000 </r>
       <r>    3.4338    1.0000 </r>
       <r>    3.4338    1.0000 </r>
       <r>   14.6133    0.0000 </r>
       <r>   14.6133    0.0000 </r>
       <r>   26.6880    0.0000 </r>
       <r>   26.6880    0.0000 </r>
       <r>   33.1214    0.0000 </r>
       <r>   33.1214    0.0000 </r>
       <r>   42.2048    0.0000 </r>
       <r>   42.2105    0.0000 </r>
      </set>
      <set comment="kpoint 45">
       <r>   -2.9928    1.0000 </r>
       <r>   -2.9928    1.0000 </r>
       <r>    3.4087    1.0000 </r>
       <r>    3.4087    1.0000 </r>
       <r>   14.6567    0.0000 </r>
       <r>   14.6567    0.0000 </r>
       <r>   26.6549    0.0000 </r>
       <r>   26.6549    0.0000 </r>
       <r>   33.0823    0.0000 </r>
       <r>   33.0823    0.0000 </r>
       <r>   42.1493    0.0000 </r>
       <r>   42.1522    0.0000 </r>
      </set>
      <set comment="kpoint 46">
       <r>   -2.9841    1.0000 </r>
       <r>   -2.9841    1.0000 </r>
       <r>    3.3784    1.0000 </r>
       <r>    3.3784    1.0000 </r>
       <r>   14.7131    0.0000 </r>
       <r>   14.7131    0.0000 </r>
       <r>   26.6276    0.0000 </r>
       <r>   26.6276    0.0000 </r>
       <r>   33.0473    0.0000 </r>
       <r>   33.0473    0.0000 </r>
       <r>   42.0890    0.0000 </r>
       <r>   42.0894    0.0000 </r>
      </set>
      <set comment="kpoint 47">
       <r>   -2.9734    1.0000 </r>
       <r>   -2.9734    1.0000 </r>
       <r>    3.3419    1.0000 </r>
       <r>    3.3419    1.0000 </r>
       <r>   14.7815    0.0000 </r>
       <r>   14.7815    0.0000 </r>
       <r>   26.5941    0.0000 </r>
       <r>   26.5941    0.0000 </r>
       <r>   33.0053    0.0000 </r>
       <r>   33.0053    0.0000 </r>
       <r>   42.0196    0.0000 </r>
       <r>   42.0209    0.0000 </r>
      </set>
      <set comment="kpoint 48">
       <r>   -2.9608    1.0000 </r>
       <r>   -2.9608    1.0000 </r>
       <r>    3.2996    1.0000 </r>
       <r>    3.2996    1.0000 </r>
       <r>   14.8615    0.0000 </r>
       <r>   14.8615    0.0000 </r>
       <r>   26.5543    0.0000 </r>
       <r>   26.5543    0.0000 </r>
       <r>   32.9566    0.0000 </r>
       <r>   32.9566    0.0000 </r>
       <r>   41.9429    0.0000 </r>
       <r>   41.9435    0.0000 </r>
      </set>
      <set comment="kpoint 49">
       <r>   -2.9464    1.0000 </r>
       <r>   -2.9464    1.0000 </r>
       <r>    3.2532    1.0000 </r>
       <r>    3.2532    1.0000 </r>
       <r>   14.9534    0.0000 </r>
       <r>   14.9534    0.0000 </r>
       <r>   26.5194    0.0000 </r>
       <r>   26.5194    0.0000 </r>
       <r>   32.9034    0.0000 </r>
       <r>   32.9034    0.0000 </r>
       <r>   41.8625    0.0000 </r>
       <r>   41.8628    0.0000 </r>
      </set>
      <set comment="kpoint 50">
       <r>   -2.9302    1.0000 </r>
       <r>   -2.9302    1.0000 </r>
       <r>    3.2001    1.0000 </r>
       <r>    3.2001    1.0000 </r>
       <r>   15.0557    0.0000 </r>
       <r>   15.0557    0.0000 </r>
       <r>   26.4659    0.0000 </r>
       <r>   26.4659    0.0000 </r>
       <r>   32.8429    0.0000 </r>
       <r>   32.8429    0.0000 </r>
       <r>   41.7763    0.0000 </r>
       <r>   41.7766    0.0000 </r>
      </set>
      <set comment="kpoint 51">
       <r>   -2.9123    1.0000 </r>
       <r>   -2.9123    1.0000 </r>
       <r>    3.1423    1.0000 </r>
       <r>    3.1423    1.0000 </r>
       <r>   15.1686    0.0000 </r>
       <r>   15.1686    0.0000 </r>
       <r>   26.4054    0.0000 </r>
       <r>   26.4054    0.0000 </r>
       <r>   32.7773    0.0000 </r>
       <r>   32.7773    0.0000 </r>
       <r>   41.6879    0.0000 </r>
[...]
        <r>  0.0000  0.0065  0.0360  0.0360  0.0000  0.0000  0.0000  0.0000  0.0000 </r>
       </set>
      </set>
      <set comment="kpoint 394">
       <set comment="band 1">
        <r>  0.2096  0.1119  0.0000  0.0000  0.0000  0.0000  0.0000  0.0000  0.0000 </r>
        <r>  0.2096  0.1119  0.0000  0.0000  0.0000  0.0000  0.0000  0.0000  0.0000 </r>
       </set>
       <set comment="band 2">
        <r>  0.2081  0.1124  0.0003  0.0003  0.0000  0.0000  0.0000  0.0000  0.0000 </r>
        <r>  0.2081  0.1124  0.0003  0.0003  0.0000  0.0000  0.0000  0.0000  0.0000 </r>
       </set>
       <set comment="band 3">
        <r>  0.0017  0.0016  0.1621  0.1621  0.0000  0.0000  0.0000  0.0000  0.0000 </r>
        <r>  0.0017  0.0016  0.1621  0.1621  0.0000  0.0000  0.0000  0.0000  0.0000 </r>
       </set>
       <set comment="band 4">
        <r>  0.0000  0.0000  0.1657  0.1657  0.0000  0.0000  0.0000  0.0000  0.0000 </r>
        <r>  0.0000  0.0000  0.1657  0.1657  0.0000  0.0000  0.0000  0.0000  0.0000 </r>
       </set>
       <set comment="band 5">
        <r>  0.1191  0.0518  0.0002  0.0002  0.0000  0.0000  0.0000  0.0000  0.0000 </r>
        <r>  0.1191  0.0518  0.0002  0.0002  0.0000  0.0000  0.0000  0.0000  0.0000 </r>
       </set>
       <set comment="band 6">
        <r>  0.1163  0.0510  0.0036  0.0036  0.0000  0.0000  0.0000  0.0000  0.0000 </r>
        <r>  0.1163  0.0510  0.0036  0.0036  0.0000  0.0000  0.0000  0.0000  0.0000 </r>
       </set>
       <set comment="band 7">
        <r>  0.0000  0.0000  0.2099  0.2099  0.0000  0.0000  0.0000  0.0000  0.0000 </r>
        <r>  0.0000  0.0000  0.2099  0.2099  0.0000  0.0000  0.0000  0.0000  0.0000 </r>
       </set>
       <set comment="band 8">
        <r>  0.0025  0.0014  0.2081  0.2081  0.0000  0.0000  0.0000  0.0000  0.0000 </r>
        <r>  0.0025  0.0014  0.2081  0.2081  0.0000  0.0000  0.0000  0.0000  0.0000 </r>
       </set>
       <set comment="band 9">
        <r>  0.0358  0.2797  0.0002  0.0002  0.0000  0.0000  0.0000  0.0000  0.0000 </r>
        <r>  0.0358  0.2797  0.0002  0.0002  0.0000  0.0000  0.0000  0.0000  0.0000 </r>
       </set>
       <set comment="band 10">
        <r>  0.0343  0.2830  0.0019  0.0019  0.0000  0.0000  0.0000  0.0000  0.0000 </r>
        <r>  0.0343  0.2830  0.0019  0.0019  0.0000  0.0000  0.0000  0.0000  0.0000 </r>
       </set>
       <set comment="band 11">
        <r>  0.0000  0.0000  0.0337  0.0336  0.0000  0.0000  0.0000  0.0000  0.0000 </r>
        <r>  0.0000  0.0000  0.0337  0.0336  0.0000  0.0000  0.0000  0.0000  0.0000 </r>
       </set>
       <set comment="band 12">
        <r>  0.0000  0.0049  0.0360  0.0360  0.0000  0.0000  0.0000  0.0000  0.0000 </r>
        <r>  0.0000  0.0049  0.0360  0.0360  0.0000  0.0000  0.0000  0.0000  0.0000 </r>
       </set>
      </set>
      <set comment="kpoint 395">
       <set comment="band 1">
        <r>  0.2092  0.1121  0.0000  0.0000  0.0000  0.0000  0.0000  0.0000  0.0000 </r>
        <r>  0.2092  0.1121  0.0000  0.0000  0.0000  0.0000  0.0000  0.0000  0.0000 </r>
       </set>
       <set comment="band 2">
        <r>  0.2082  0.1125  0.0002  0.0002  0.0000  0.0000  0.0000  0.0000  0.0000 </r>
        <r>  0.2082  0.1125  0.0002  0.0002  0.0000  0.0000  0.0000  0.0000  0.0000 </r>
       </set>
       <set comment="band 3">
        <r>  0.0012  0.0011  0.1631  0.1631  0.0000  0.0000  0.0000  0.0000  0.0000 </r>
        <r>  0.0012  0.0011  0.1631  0.1631  0.0000  0.0000  0.0000  0.0000  0.0000 </r>
       </set>
       <set comment="band 4">
        <r>  0.0000  0.0000  0.1656  0.1656  0.0000  0.0000  0.0000  0.0000  0.0000 </r>
        <r>  0.0000  0.0000  0.1656  0.1656  0.0000  0.0000  0.0000  0.0000  0.0000 </r>
       </set>
       <set comment="band 5">
        <r>  0.1192  0.0517  0.0002  0.0002  0.0000  0.0000  0.0000  0.0000  0.0000 </r>
        <r>  0.1192  0.0517  0.0002  0.0002  0.0000  0.0000  0.0000  0.0000  0.0000 </r>
       </set>
       <set comment="band 6">
        <r>  0.1172  0.0511  0.0025  0.0025  0.0000  0.0000  0.0000  0.0000  0.0000 </r>
        <r>  0.1172  0.0511  0.0025  0.0025  0.0000  0.0000  0.0000  0.0000  0.0000 </r>
       </set>
       <set comment="band 7">
        <r>  0.0017  0.0010  0.2089  0.2088  0.0000  0.0000  0.0000  0.0000  0.0000 </r>
        <r>  0.0017  0.0010  0.2089  0.2088  0.0000  0.0000  0.0000  0.0000  0.0000 </r>
       </set>
       <set comment="band 8">
        <r>  0.0000  0.0000  0.2102  0.2102  0.0000  0.0000  0.0000  0.0000  0.0000 </r>
        <r>  0.0000  0.0000  0.2102  0.2102  0.0000  0.0000  0.0000  0.0000  0.0000 </r>
       </set>
       <set comment="band 9">
        <r>  0.0358  0.2813  0.0001  0.0001  0.0000  0.0000  0.0000  0.0000  0.0000 </r>
        <r>  0.0358  0.2813  0.0001  0.0001  0.0000  0.0000  0.0000  0.0000  0.0000 </r>
       </set>
       <set comment="band 10">
        <r>  0.0348  0.2836  0.0013  0.0013  0.0000  0.0000  0.0000  0.0000  0.0000 </r>
        <r>  0.0348  0.2836  0.0013  0.0013  0.0000  0.0000  0.0000  0.0000  0.0000 </r>
       </set>
       <set comment="band 11">
        <r>  0.0000  0.0000  0.0344  0.0342  0.0000  0.0000  0.0000  0.0000  0.0000 </r>
        <r>  0.0000  0.0000  0.0344  0.0342  0.0000  0.0000  0.0000  0.0000  0.0000 </r>
       </set>
       <set comment="band 12">
        <r>  0.0000  0.0035  0.0360  0.0360  0.0000  0.0000  0.0000  0.0000  0.0000 </r>
        <r>  0.0000  0.0035  0.0360  0.0360  0.0000  0.0000  0.0000  0.0000  0.0000 </r>
       </set>
      </set>
      <set comment="kpoint 396">
       <set comment="band 1">
        <r>  0.2089  0.1123  0.0000  0.0000  0.0000  0.0000  0.0000  0.0000  0.0000 </r>
        <r>  0.2089  0.1123  0.0000  0.0000  0.0000  0.0000  0.0000  0.0000  0.0000 </r>
       </set>
       <set comment="band 2">
        <r>  0.2083  0.1125  0.0001  0.0001  0.0000  0.0000  0.0000  0.0000  0.0000 </r>
        <r>  0.2083  0.1125  0.0001  0.0001  0.0000  0.0000  0.0000  0.0000  0.0000 </r>
       </set>
       <set comment="band 3">
        <r>  0.0008  0.0007  0.1640  0.1640  0.0000  0.0000  0.0000  0.0000  0.0000 </r>
        <r>  0.0008  0.0007  0.1640  0.1640  0.0000  0.0000  0.0000  0.0000  0.0000 </r>
       </set>
       <set comment="band 4">
        <r>  0.0000  0.0000  0.1656  0.1656  0.0000  0.0000  0.0000  0.0000  0.0000 </r>
        <r>  0.0000  0.0000  0.1656  0.1656  0.0000  0.0000  0.0000  0.0000  0.0000 </r>
       </set>
       <set comment="band 5">
        <r>  0.1193  0.0516  0.0001  0.0001  0.0000  0.0000  0.0000  0.0000  0.0000 </r>
        <r>  0.1193  0.0516  0.0001  0.0001  0.0000  0.0000  0.0000  0.0000  0.0000 </r>
       </set>
       <set comment="band 6">
        <r>  0.1180  0.0513  0.0016  0.0016  0.0000  0.0000  0.0000  0.0000  0.0000 </r>
        <r>  0.1180  0.0513  0.0016  0.0016  0.0000  0.0000  0.0000  0.0000  0.0000 </r>
       </set>
       <set comment="band 7">
        <r>  0.0011  0.0006  0.2095  0.2095  0.0000  0.0000  0.0000  0.0000  0.0000 </r>
        <r>  0.0011  0.0006  0.2095  0.2095  0.0000  0.0000  0.0000  0.0000  0.0000 </r>
       </set>
       <set comment="band 8">
        <r>  0.0000  0.0000  0.2104  0.2104  0.0000  0.0000  0.0000  0.0000  0.0000 </r>
        <r>  0.0000  0.0000  0.2104  0.2104  0.0000  0.0000  0.0000  0.0000  0.0000 </r>
       </set>
       <set comment="band 9">
        <r>  0.0358  0.2825  0.0001  0.0001  0.0000  0.0000  0.0000  0.0000  0.0000 </r>
        <r>  0.0358  0.2825  0.0001  0.0001  0.0000  0.0000  0.0000  0.0000  0.0000 </r>
       </set>
       <set comment="band 10">
        <r>  0.0351  0.2840  0.0008  0.0008  0.0000  0.0000  0.0000  0.0000  0.0000 </r>
        <r>  0.0351  0.2840  0.0008  0.0008  0.0000  0.0000  0.0000  0.0000  0.0000 </r>
       </set>
       <set comment="band 11">
        <r>  0.0000  0.0000  0.0349  0.0348  0.0000  0.0000  0.0000  0.0000  0.0000 </r>
        <r>  0.0000  0.0000  0.0349  0.0348  0.0000  0.0000  0.0000  0.0000  0.0000 </r>
       </set>
       <set comment="band 12">
        <r>  0.0000  0.0022  0.0360  0.0360  0.0000  0.0000  0.0000  0.0000  0.0000 </r>
        <r>  0.0000  0.0022  0.0360  0.0360  0.0000  0.0000  0.0000  0.0000  0.0000 </r>
       </set>
      </set>
      <set comment="kpoint 397">
       <set comment="band 1">
        <r>  0.2087  0.1124  0.0000  0.0000  0.0000  0.0000  0.0000  0.0000  0.0000 </r>
        <r>  0.2087  0.1124  0.0000  0.0000  0.0000  0.0000  0.0000  0.0000  0.0000 </r>
       </set>
       <set comment="band 2">
        <r>  0.2084  0.1125  0.0001  0.0001  0.0000  0.0000  0.0000  0.0000  0.0000 </r>
        <r>  0.2084  0.1125  0.0001  0.0001  0.0000  0.0000  0.0000  0.0000  0.0000 </r>
       </set>
       <set comment="band 3">
        <r>  0.0005  0.0004  0.1647  0.1647  0.0000  0.0000  0.0000  0.0000  0.0000 </r>
        <r>  0.0005  0.0004  0.1647  0.1647  0.0000  0.0000  0.0000  0.0000  0.0000 </r>
       </set>
       <set comment="band 4">
        <r>  0.0000  0.0000  0.1656  0.1656  0.0000  0.0000  0.0000  0.0000  0.0000 </r>
        <r>  0.0000  0.0000  0.1656  0.1656  0.0000  0.0000  0.0000  0.0000  0.0000 </r>
       </set>
       <set comment="band 5">
        <r>  0.1193  0.0516  0.0001  0.0001  0.0000  0.0000  0.0000  0.0000  0.0000 </r>
        <r>  0.1193  0.0516  0.0001  0.0001  0.0000  0.0000  0.0000  0.0000  0.0000 </r>
       </set>
       <set comment="band 6">
        <r>  0.1185  0.0514  0.0009  0.0009  0.0000  0.0000  0.0000  0.0000  0.0000 </r>
        <r>  0.1185  0.0514  0.0009  0.0009  0.0000  0.0000  0.0000  0.0000  0.0000 </r>
       </set>
       <set comment="band 7">
        <r>  0.0006  0.0004  0.2099  0.2100  0.0000  0.0000  0.0000  0.0000  0.0000 </r>
        <r>  0.0006  0.0004  0.2099  0.2100  0.0000  0.0000  0.0000  0.0000  0.0000 </r>
       </set>
       <set comment="band 8">
        <r>  0.0000  0.0000  0.2106  0.2106  0.0000  0.0000  0.0000  0.0000  0.0000 </r>
        <r>  0.0000  0.0000  0.2106  0.2106  0.0000  0.0000  0.0000  0.0000  0.0000 </r>
       </set>
       <set comment="band 9">
        <r>  0.0358  0.2836  0.0001  0.0001  0.0000  0.0000  0.0000  0.0000  0.0000 </r>
        <r>  0.0358  0.2836  0.0001  0.0001  0.0000  0.0000  0.0000  0.0000  0.0000 </r>
       </set>
       <set comment="band 10">
        <r>  0.0354  0.2845  0.0005  0.0005  0.0000  0.0000  0.0000  0.0000  0.0000 </r>
        <r>  0.0354  0.2845  0.0005  0.0005  0.0000  0.0000  0.0000  0.0000  0.0000 </r>
       </set>
       <set comment="band 11">
        <r>  0.0000  0.0000  0.0353  0.0353  0.0000  0.0000  0.0000  0.0000  0.0000 </r>
        <r>  0.0000  0.0000  0.0353  0.0353  0.0000  0.0000  0.0000  0.0000  0.0000 </r>
       </set>
       <set comment="band 12">
        <r>  0.0000  0.0013  0.0359  0.0360  0.0000  0.0000  0.0000  0.0000  0.0000 </r>
        <r>  0.0000  0.0013  0.0360  0.0359  0.0000  0.0000  0.0000  0.0000  0.0000 </r>
       </set>
      </set>
      <set comment="kpoint 398">
       <set comment="band 1">
        <r>  0.2085  0.1125  0.0000  0.0000  0.0000  0.0000  0.0000  0.0000  0.0000 </r>
        <r>  0.2085  0.1125  0.0000  0.0000  0.0000  0.0000  0.0000  0.0000  0.0000 </r>
       </set>
       <set comment="band 2">
        <r>  0.2084  0.1125  0.0000  0.0000  0.0000  0.0000  0.0000  0.0000  0.0000 </r>
        <r>  0.2084  0.1125  0.0000  0.0000  0.0000  0.0000  0.0000  0.0000  0.0000 </r>
       </set>
       <set comment="band 3">
        <r>  0.0002  0.0002  0.1652  0.1652  0.0000  0.0000  0.0000  0.0000  0.0000 </r>
        <r>  0.0002  0.0002  0.1652  0.1652  0.0000  0.0000  0.0000  0.0000  0.0000 </r>
       </set>
       <set comment="band 4">
        <r>  0.0000  0.0000  0.1656  0.1656  0.0000  0.0000  0.0000  0.0000  0.0000 </r>
        <r>  0.0000  0.0000  0.1656  0.1656  0.0000  0.0000  0.0000  0.0000  0.0000 </r>
       </set>
       <set comment="band 5">
        <r>  0.1193  0.0516  0.0000  0.0000  0.0000  0.0000  0.0000  0.0000  0.0000 </r>
        <r>  0.1193  0.0516  0.0000  0.0000  0.0000  0.0000  0.0000  0.0000  0.0000 </r>
       </set>
       <set comment="band 6">
        <r>  0.1189  0.0515  0.0004  0.0004  0.0000  0.0000  0.0000  0.0000  0.0000 </r>
        <r>  0.1189  0.0515  0.0004  0.0004  0.0000  0.0000  0.0000  0.0000  0.0000 </r>
       </set>
       <set comment="band 7">
        <r>  0.0000  0.0000  0.2107  0.2107  0.0000  0.0000  0.0000  0.0000  0.0000 </r>
        <r>  0.0000  0.0000  0.2107  0.2107  0.0000  0.0000  0.0000  0.0000  0.0000 </r>
       </set>
       <set comment="band 8">
        <r>  0.0003  0.0002  0.2105  0.2105  0.0000  0.0000  0.0000  0.0000  0.0000 </r>
        <r>  0.0003  0.0002  0.2105  0.2105  0.0000  0.0000  0.0000  0.0000  0.0000 </r>
       </set>
       <set comment="band 9">
        <r>  0.0358  0.2843  0.0000  0.0000  0.0000  0.0000  0.0000  0.0000  0.0000 </r>
        <r>  0.0358  0.2843  0.0000  0.0000  0.0000  0.0000  0.0000  0.0000  0.0000 </r>
       </set>
       <set comment="band 10">
        <r>  0.0356  0.2847  0.0002  0.0002  0.0000  0.0000  0.0000  0.0000  0.0000 </r>
        <r>  0.0356  0.2847  0.0002  0.0002  0.0000  0.0000  0.0000  0.0000  0.0000 </r>
       </set>
       <set comment="band 11">
        <r>  0.0000  0.0000  0.0357  0.0357  0.0000  0.0000  0.0000  0.0000  0.0000 </r>
        <r>  0.0000  0.0000  0.0357  0.0357  0.0000  0.0000  0.0000  0.0000  0.0000 </r>
       </set>
       <set comment="band 12">
        <r>  0.0000  0.0006  0.0360  0.0360  0.0000  0.0000  0.0000  0.0000  0.0000 </r>
        <r>  0.0000  0.0006  0.0360  0.0360  0.0000  0.0000  0.0000  0.0000  0.0000 </r>
       </set>
      </set>
      <set comment="kpoint 399">
       <set comment="band 1">
        <r>  0.2084  0.1125  0.0000  0.0000  0.0000  0.0000  0.0000  0.0000  0.0000 </r>
        <r>  0.2084  0.1125  0.0000  0.0000  0.0000  0.0000  0.0000  0.0000  0.0000 </r>
       </set>
       <set comment="band 2">
        <r>  0.2084  0.1125  0.0000  0.0000  0.0000  0.0000  0.0000  0.0000  0.0000 </r>
        <r>  0.2084  0.1125  0.0000  0.0000  0.0000  0.0000  0.0000  0.0000  0.0000 </r>
       </set>
       <set comment="band 3">
        <r>  0.0001  0.0000  0.1655  0.1655  0.0000  0.0000  0.0000  0.0000  0.0000 </r>
        <r>  0.0001  0.0000  0.1655  0.1655  0.0000  0.0000  0.0000  0.0000  0.0000 </r>
       </set>
       <set comment="band 4">
        <r>  0.0000  0.0000  0.1656  0.1656  0.0000  0.0000  0.0000  0.0000  0.0000 </r>
        <r>  0.0000  0.0000  0.1656  0.1656  0.0000  0.0000  0.0000  0.0000  0.0000 </r>
       </set>
       <set comment="band 5">
        <r>  0.1193  0.0516  0.0000  0.0000  0.0000  0.0000  0.0000  0.0000  0.0000 </r>
        <r>  0.1193  0.0516  0.0000  0.0000  0.0000  0.0000  0.0000  0.0000  0.0000 </r>
       </set>
       <set comment="band 6">
        <r>  0.1192  0.0515  0.0001  0.0001  0.0000  0.0000  0.0000  0.0000  0.0000 </r>
        <r>  0.1192  0.0515  0.0001  0.0001  0.0000  0.0000  0.0000  0.0000  0.0000 </r>
       </set>
       <set comment="band 7">
        <r>  0.0000  0.0000  0.2108  0.2107  0.0000  0.0000  0.0000  0.0000  0.0000 </r>
        <r>  0.0000  0.0000  0.2108  0.2107  0.0000  0.0000  0.0000  0.0000  0.0000 </r>
       </set>
       <set comment="band 8">
        <r>  0.0001  0.0000  0.2107  0.2107  0.0000  0.0000  0.0000  0.0000  0.0000 </r>
        <r>  0.0001  0.0000  0.2107  0.2107  0.0000  0.0000  0.0000  0.0000  0.0000 </r>
       </set>
       <set comment="band 9">
        <r>  0.0358  0.2848  0.0000  0.0000  0.0000  0.0000  0.0000  0.0000  0.0000 </r>
        <r>  0.0358  0.2848  0.0000  0.0000  0.0000  0.0000  0.0000  0.0000  0.0000 </r>
       </set>
       <set comment="band 10">
        <r>  0.0357  0.2849  0.0001  0.0001  0.0000  0.0000  0.0000  0.0000  0.0000 </r>
        <r>  0.0357  0.2849  0.0001  0.0001  0.0000  0.0000  0.0000  0.0000  0.0000 </r>
       </set>
       <set comment="band 11">
        <r>  0.0000  0.0000  0.0359  0.0359  0.0000  0.0000  0.0000  0.0000  0.0000 </r>
        <r>  0.0000  0.0000  0.0359  0.0359  0.0000  0.0000  0.0000  0.0000  0.0000 </r>
       </set>
       <set comment="band 12">
        <r>  0.0000  0.0001  0.0360  0.0360  0.0000  0.0000  0.0000  0.0000  0.0000 </r>
        <r>  0.0000  0.0001  0.0360  0.0360  0.0000  0.0000  0.0000  0.0000  0.0000 </r>
       </set>
      </set>
      <set comment="kpoint 400">
       <set comment="band 1">
        <r>  0.2084  0.1125  0.0000  0.0000  0.0000  0.0000  0.0000  0.0000  0.0000 </r>
        <r>  0.2084  0.1125  0.0000  0.0000  0.0000  0.0000  0.0000  0.0000  0.0000 </r>
       </set>
       <set comment="band 2">
        <r>  0.2084  0.1125  0.0000  0.0000  0.0000  0.0000  0.0000  0.0000  0.0000 </r>
        <r>  0.2084  0.1125  0.0000  0.0000  0.0000  0.0000  0.0000  0.0000  0.0000 </r>
       </set>
       <set comment="band 3">
        <r>  0.0000  0.0000  0.1656  0.1656  0.0000  0.0000  0.0000  0.0000  0.0000 </r>
        <r>  0.0000  0.0000  0.1656  0.1656  0.0000  0.0000  0.0000  0.0000  0.0000 </r>
       </set>
       <set comment="band 4">
        <r>  0.0000  0.0000  0.1656  0.1656  0.0000  0.0000  0.0000  0.0000  0.0000 </r>
        <r>  0.0000  0.0000  0.1656  0.1656  0.0000  0.0000  0.0000  0.0000  0.0000 </r>
       </set>
       <set comment="band 5">
        <r>  0.1193  0.0516  0.0000  0.0000  0.0000  0.0000  0.0000  0.0000  0.0000 </r>
        <r>  0.1193  0.0516  0.0000  0.0000  0.0000  0.0000  0.0000  0.0000  0.0000 </r>
       </set>
       <set comment="band 6">
        <r>  0.1193  0.0516  0.0000  0.0000  0.0000  0.0000  0.0000  0.0000  0.0000 </r>
        <r>  0.1193  0.0516  0.0000  0.0000  0.0000  0.0000  0.0000  0.0000  0.0000 </r>
       </set>
       <set comment="band 7">
        <r>  0.0000  0.0000  0.2108  0.2108  0.0000  0.0000  0.0000  0.0000  0.0000 </r>
        <r>  0.0000  0.0000  0.2108  0.2108  0.0000  0.0000  0.0000  0.0000  0.0000 </r>
       </set>
       <set comment="band 8">
        <r>  0.0000  0.0000  0.2108  0.2108  0.0000  0.0000  0.0000  0.0000  0.0000 </r>
        <r>  0.0000  0.0000  0.2108  0.2108  0.0000  0.0000  0.0000  0.0000  0.0000 </r>
       </set>
       <set comment="band 9">
        <r>  0.0357  0.2851  0.0000  0.0000  0.0000  0.0000  0.0000  0.0000  0.0000 </r>
        <r>  0.0358  0.2848  0.0000  0.0000  0.0000  0.0000  0.0000  0.0000  0.0000 </r>
       </set>
       <set comment="band 10">
        <r>  0.0358  0.2848  0.0000  0.0000  0.0000  0.0000  0.0000  0.0000  0.0000 </r>
        <r>  0.0357  0.2851  0.0000  0.0000  0.0000  0.0000  0.0000  0.0000  0.0000 </r>
       </set>
       <set comment="band 11">
        <r>  0.0000  0.0000  0.0360  0.0360  0.0000  0.0000  0.0000  0.0000  0.0000 </r>
        <r>  0.0000  0.0000  0.0360  0.0360  0.0000  0.0000  0.0000  0.0000  0.0000 </r>
       </set>
       <set comment="band 12">
        <r>  0.0000  0.0000  0.0361  0.0360  0.0000  0.0000  0.0000  0.0000  0.0000 </r>
        <r>  0.0000  0.0000  0.0360  0.0360  0.0000  0.0000  0.0000  0.0000  0.0000 </r>
       </set>
      </set>
     </set>
    </set>
   </array>
  </projected>
 </calculation>
 <structure name="finalpos" >
  <crystal>
   <varray name="basis" >
    <v>       0.00000000       1.78092937       1.78092937 </v>
    <v>       1.78092937       0.00000000       1.78092937 </v>
    <v>       1.78092937       1.78092937       0.00000000 </v>
   </varray>
   <i name="volume">     11.29718085 </i>
   <varray name="rec_basis" >
    <v>      -0.28075229       0.28075229       0.28075229 </v>
    <v>       0.28075229      -0.28075229       0.28075229 </v>
    <v>       0.28075229       0.28075229      -0.28075229 </v>
   </varray>
  </crystal>
  <varray name="positions" >
   <v>       0.00000000       0.00000000       0.00000000 </v>
   <v>       0.25000000       0.25000000       0.25000000 </v>
  </varray>
 </structure>
</modeling>
